cellI,x,y,z,S,epsilon,k,nut
54390,0.00064993565,0.09,0.00065,1.68983269e-06,0.4680358727,0.01205666805,1.303803933e-06
54391,0.00194980695,0.09,0.00065,1.68983269e-06,0.530071672,0.01298580777,1.38422185e-06
54392,0.00324967825,0.09,0.00065,1.68983269e-06,0.5981832296,0.01395566825,1.465132111e-06
54393,0.004549549549,0.09,0.00065,1.689832689e-06,0.6728836082,0.01496824584,1.546647114e-06
54394,0.005849420849,0.09,0.00065,1.68983269e-06,0.7546622871,0.01602476792,1.628805624e-06
54395,0.007149292149,0.09,0.00065,1.68983269e-06,0.8439982999,0.01712600599,1.711607736e-06
54396,0.008449163449,0.09,0.00065,1.68983269e-06,0.9413606589,0.01827237053,1.795027746e-06
54397,0.00974903475,0.09,0.00065,1.689832691e-06,1.047206876,0.01946396672,1.879022008e-06
54398,0.01104890605,0.09,0.00065,1.68983269e-06,1.16198008,0.02070062613,1.963533797e-06
54399,0.01234877735,0.09,0.00065,1.68983269e-06,1.286104832,0.02198192111,2.048496221e-06
54400,0.01364864865,0.09,0.00065,1.68983269e-06,1.419982161,0.02330717137,2.13383413e-06
54401,0.01494851995,0.09,0.00065,1.68983269e-06,1.563984259,0.02467544836,2.219465565e-06
54402,0.01624839125,0.09,0.00065,1.68983269e-06,1.718449039,0.02608557973,2.305302965e-06
54403,0.01754826255,0.09,0.00065,1.68983269e-06,1.8836747,0.02753615479,2.391254211e-06
54404,0.01884813385,0.09,0.00065,1.68983269e-06,2.059914389,0.02902553101,2.477223543e-06
54405,0.02014800515,0.09,0.00065,1.68983269e-06,2.247371083,0.03055184219,2.563112408e-06
54406,0.02144787645,0.09,0.00065,1.68983269e-06,2.446192814,0.03211300834,2.648820241e-06
54407,0.02274774775,0.09,0.00065,1.68983269e-06,2.656468345,0.03370674744,2.734245205e-06
54408,0.02404761905,0.09,0.00065,1.68983269e-06,2.878223393,0.03533058894,2.819284895e-06
54409,0.02534749035,0.09,0.00065,1.68983269e-06,3.111417501,0.03698188912,2.903837003e-06
54410,0.02664736165,0.09,0.00065,1.68983269e-06,3.355941635,0.03865784793,2.987799961e-06
54411,0.02794723295,0.09,0.00065,1.68983269e-06,3.611616574,0.04035552736,3.071073538e-06
54412,0.02924710425,0.09,0.00065,1.68983269e-06,3.878192152,0.04207187109,3.153559421e-06
54413,0.03054697555,0.09,0.00065,1.68983269e-06,4.155347378,0.04380372505,3.235161746e-06
54414,0.03184684685,0.09,0.00065,1.68983269e-06,4.442691426,0.04554785869,3.315787596e-06
54415,0.03314671815,0.09,0.00065,1.68983269e-06,4.739765529,0.04730098669,3.395347458e-06
54416,0.03444658945,0.09,0.00065,1.68983269e-06,5.046045727,0.04905979096,3.47375564e-06
54417,0.03574646075,0.09,0.00065,1.68983269e-06,5.360946438,0.05082094244,3.55093064e-06
54418,0.03704633205,0.09,0.00065,1.68983269e-06,5.683824798,0.05258112262,3.626795476e-06
54419,0.03834620335,0.09,0.00065,1.68983269e-06,6.013985679,0.05433704447,3.701277969e-06
54420,0.03964607465,0.09,0.00065,1.68983269e-06,6.350687302,0.05608547237,3.774310973e-06
54421,0.04094594595,0.09,0.00065,1.68983269e-06,6.69314736,0.05782324116,3.845832565e-06
54422,0.04224581725,0.09,0.00065,1.68983269e-06,7.040549536,0.0595472738,3.915786189e-06
54423,0.04354568855,0.09,0.00065,1.68983269e-06,7.392050311,0.06125459774,3.984120751e-06
54424,0.04484555985,0.09,0.00065,1.68983269e-06,7.746785953,0.06294235974,4.050790677e-06
54425,0.04614543115,0.09,0.00065,1.68983269e-06,8.103879564,0.06460783899,4.115755928e-06
54426,0.04744530245,0.09,0.00065,1.68983269e-06,8.462448101,0.06624845862,4.178981975e-06
54427,0.04874517375,0.09,0.00065,1.68983269e-06,8.821609253,0.0678617955,4.240439736e-06
54428,0.05004504504,0.09,0.00065,1.689832677e-06,9.180488076,0.06944558815,4.300105488e-06
54429,0.05134491634,0.09,0.00065,1.68983269e-06,9.538223333,0.07099774317,4.35796074e-06
54430,0.05264478764,0.09,0.00065,1.68983269e-06,9.893973411,0.07251633968,4.413992083e-06
54431,0.05394465894,0.09,0.00065,1.68983269e-06,10.24692181,0.07399963235,4.468191013e-06
54432,0.05524453024,0.09,0.00065,1.68983269e-06,10.59628214,0.07544605284,4.520553737e-06
54433,0.05654440154,0.09,0.00065,1.68983269e-06,10.94130252,0.07685420967,4.571080959e-06
54434,0.05784427284,0.09,0.00065,1.68983269e-06,11.28126948,0.07822288681,4.619777649e-06
54435,0.05914414414,0.09,0.00065,1.68983269e-06,11.61551125,0.07955104105,4.666652805e-06
54436,0.06044401544,0.09,0.00065,1.68983269e-06,11.94340044,0.08083779823,4.711719205e-06
54437,0.06174388674,0.09,0.00065,1.68983269e-06,12.26435623,0.08208244846,4.75499315e-06
54438,0.06304375804,0.09,0.00065,1.68983269e-06,12.57784588,0.08328444051,4.79649421e-06
54439,0.06434362934,0.09,0.00065,1.68983269e-06,12.8833858,0.08444337542,4.836244962e-06
54440,0.06564350064,0.09,0.00065,1.68983269e-06,13.18054205,0.08555899948,4.874270732e-06
54441,0.06694337194,0.09,0.00065,1.68983269e-06,13.46893037,0.08663119672,4.910599338e-06
54442,0.06824324324,0.09,0.00065,1.68983269e-06,13.7482158,0.08765998101,4.945260842e-06
54443,0.06954311454,0.09,0.00065,1.68983269e-06,14.01811186,0.08864548788,4.978287304e-06
54444,0.07084298584,0.09,0.00065,1.68983269e-06,14.27837943,0.08958796615,5.009712542e-06
54445,0.07214285714,0.09,0.00065,1.68983269e-06,14.52882523,0.09048776948,5.039571907e-06
54446,0.07344272844,0.09,0.00065,1.68983269e-06,14.76930018,0.0913453479,5.067902062e-06
54447,0.07474259974,0.09,0.00065,1.68983269e-06,14.99969736,0.09216123937,5.094740772e-06
54448,0.07604247104,0.09,0.00065,1.68983269e-06,15.21994992,0.09293606159,5.120126704e-06
54449,0.07734234234,0.09,0.00065,1.68983269e-06,15.43002881,0.09367050386,5.144099245e-06
54450,0.07864221364,0.09,0.00065,1.68983269e-06,15.62994037,0.09436531924,5.166698319e-06
54451,0.07994208494,0.09,0.00065,1.68983269e-06,15.81972391,0.09502131703,5.187964228e-06
54452,0.08124195624,0.09,0.00065,1.68983269e-06,15.99944919,0.09563935547,5.207937496e-06
54453,0.08254182754,0.09,0.00065,1.68983269e-06,16.16921396,0.09622033488,5.226658729e-06
54454,0.08384169884,0.09,0.00065,1.68983269e-06,16.32914144,0.09676519109,5.244168485e-06
54455,0.08514157014,0.09,0.00065,1.68983269e-06,16.4793779,0.09727488926,5.260507154e-06
54456,0.08644144144,0.09,0.00065,1.68983269e-06,16.62009025,0.09775041814,5.275714851e-06
54457,0.08774131274,0.09,0.00065,1.68983269e-06,16.75146375,0.09819278465,5.28983132e-06
54458,0.08904118404,0.09,0.00065,1.68983269e-06,16.87369979,0.09860300888,5.302895843e-06
54459,0.09034105534,0.09,0.00065,1.68983269e-06,16.98701372,0.09898211944,5.314947164e-06
54460,0.09164092664,0.09,0.00065,1.68983269e-06,17.09163287,0.09933114923,5.326023419e-06
54461,0.09294079794,0.09,0.00065,1.68983269e-06,17.18779457,0.0996511315,5.336162074e-06
54462,0.09424066924,0.09,0.00065,1.68983269e-06,17.27574443,0.09994309639,5.345399875e-06
54463,0.09554054054,0.09,0.00065,1.68983269e-06,17.35573463,0.1002080677,5.353772802e-06
54464,0.09684041184,0.09,0.00065,1.68983269e-06,17.42802235,0.1004470602,5.361316033e-06
54465,0.09814028314,0.09,0.00065,1.68983269e-06,17.49286837,0.1006610767,5.36806391e-06
54466,0.09944015444,0.09,0.00065,1.689832703e-06,17.55053572,0.1008511064,5.374049919e-06
54467,0.1007400257,0.09,0.00065,1.68983269e-06,17.60128853,0.1010181224,5.379306667e-06
54468,0.102039897,0.09,0.00065,1.68983269e-06,17.64539084,0.1011630802,5.383865868e-06
54469,0.1033397683,0.09,0.00065,1.68983269e-06,17.68310573,0.1012869165,5.387758336e-06
54470,0.1046396397,0.09,0.00065,1.68983269e-06,17.71469434,0.1013905473,5.391013979e-06
54471,0.1059395109,0.09,0.00065,1.68983269e-06,17.74041516,0.1014748677,5.393661796e-06
54472,0.1072393822,0.09,0.00065,1.68983269e-06,17.76052329,0.1015407503,5.395729883e-06
54473,0.1085392535,0.09,0.00065,1.68983269e-06,17.77526987,0.1015890453,5.397245436e-06
54474,0.1098391248,0.09,0.00065,1.68983269e-06,17.78490156,0.1016205795,5.398234765e-06
54475,0.1111389961,0.09,0.00065,1.68983269e-06,17.78966007,0.1016361561,5.398723296e-06
54476,0.1124388675,0.09,0.00065,1.68983269e-06,17.78978181,0.1016365546,5.398735594e-06
54477,0.1137387387,0.09,0.00065,1.68983269e-06,17.78549754,0.1016225305,5.39829537e-06
54478,0.11503861,0.09,0.00065,1.68983269e-06,17.77703218,0.1015948157,5.397425501e-06
54479,0.1163384814,0.09,0.00065,1.68983269e-06,17.76460453,0.1015541182,5.396148051e-06
54480,0.1176383526,0.09,0.00065,1.68983269e-06,17.7484272,0.1015011224,5.394484284e-06
54481,0.118938224,0.09,0.00065,1.68983269e-06,17.72870644,0.1014364898,5.392454689e-06
54482,0.1202380952,0.09,0.00065,1.68983269e-06,17.70564211,0.1013608586,5.390078999e-06
54483,0.1215379666,0.09,0.00065,1.68983269e-06,17.67942766,0.1012748447,5.387376211e-06
54484,0.1228378378,0.09,0.00065,1.68983269e-06,17.65025012,0.1011790421,5.384364615e-06
54485,0.1241377092,0.09,0.00065,1.68983269e-06,17.6182901,0.1010740231,5.381061807e-06
54486,0.1254375805,0.09,0.00065,1.68983269e-06,17.58372192,0.1009603388,5.37748472e-06
54487,0.1267374518,0.09,0.00065,1.68983269e-06,17.54671376,0.1008385205,5.373649653e-06
54488,0.1280373231,0.09,0.00065,1.68983269e-06,17.50742752,0.1007090792,5.369572274e-06
54489,0.1293371943,0.09,0.00065,1.68983269e-06,17.4660188,0.1005725056,5.365267624e-06
54490,0.1306370656,0.09,0.00065,1.68983269e-06,17.42263708,0.1004292709,5.360750144e-06
54491,0.1319369369,0.09,0.00065,1.68983269e-06,17.37742586,0.1002798279,5.356033701e-06
54492,0.1332368083,0.09,0.00065,1.68983269e-06,17.33051954,0.1001245999,5.351131267e-06
54493,0.1345366796,0.09,0.00065,1.68983269e-06,17.28204523,0.09996398775,5.346055106e-06
54494,0.1358365509,0.09,0.00065,1.68983269e-06,17.23212508,0.0997983767,5.340817025e-06
54495,0.1371364221,0.09,0.00065,1.68983269e-06,17.180876,0.09962813612,5.335428347e-06
54496,0.1384362934,0.09,0.00065,1.68983269e-06,17.12840982,0.09945361989,5.329899927e-06
54497,0.1397361647,0.09,0.00065,1.68983269e-06,17.07483355,0.09927516722,5.324242185e-06
54498,0.141036036,0.09,0.00065,1.68983269e-06,17.0202495,0.09909310314,5.318465114e-06
54499,0.1423359074,0.09,0.00065,1.68983269e-06,16.96475539,0.09890773888,5.312578297e-06
54500,0.1436357787,0.09,0.00065,1.68983269e-06,16.90844449,0.09871937228,5.306590919e-06
54501,0.1449356499,0.09,0.00065,1.68983269e-06,16.85140575,0.09852828818,5.300511778e-06
54502,0.1462355213,0.09,0.00065,1.68983269e-06,16.7937239,0.09833475884,5.294349298e-06
54503,0.1475353925,0.09,0.00065,1.68983269e-06,16.73547964,0.09813904433,5.288111542e-06
54504,0.1488352638,0.09,0.00065,1.68983269e-06,16.67674969,0.09794139294,5.281806225e-06
54505,0.1501351351,0.09,0.00065,1.68983269e-06,16.61760699,0.09774204157,5.275440723e-06
54506,0.1514350065,0.09,0.00065,1.68983269e-06,16.55812082,0.09754121615,5.269022088e-06
54507,0.1527348777,0.09,0.00065,1.68983269e-06,16.49835691,0.09733913199,5.262557057e-06
54508,0.154034749,0.09,0.00065,1.68983269e-06,16.43837759,0.09713599422,5.256052065e-06
54509,0.1553346203,0.09,0.00065,1.68983269e-06,16.3782419,0.09693199811,5.249513257e-06
54510,0.1566344916,0.09,0.00065,1.68983269e-06,16.31800576,0.0967273295,5.242946497e-06
54511,0.157934363,0.09,0.00065,1.68983269e-06,16.25772206,0.09652216512,5.236357377e-06
54512,0.1592342343,0.09,0.00065,1.68983269e-06,16.1974408,0.09631667303,5.229751236e-06
54513,0.1605341055,0.09,0.00065,1.68983269e-06,16.13720921,0.0961110129,5.22313316e-06
54514,0.1618339768,0.09,0.00065,1.68983269e-06,16.07707188,0.09590533641,5.216508e-06
54515,0.1631338481,0.09,0.00065,1.68983269e-06,16.01707088,0.09569978758,5.209880377e-06
54516,0.1644337195,0.09,0.00065,1.68983269e-06,15.95724584,0.09549450308,5.203254696e-06
54517,0.1657335907,0.09,0.00065,1.68983269e-06,15.89763411,0.09528961256,5.196635149e-06
54518,0.167033462,0.09,0.00065,1.68983269e-06,15.83827085,0.09508523897,5.190025731e-06
54519,0.1683333334,0.09,0.00065,1.68983269e-06,15.7791891,0.09488149885,5.183430243e-06
54520,0.1696332046,0.09,0.00065,1.68983269e-06,15.72041995,0.09467850267,5.176852307e-06
54521,0.1709330759,0.09,0.00065,1.68983269e-06,15.66199258,0.09447635504,5.170295367e-06
54522,0.1722329473,0.09,0.00065,1.68983269e-06,15.60393438,0.09427515505,5.163762701e-06
54523,0.1735328186,0.09,0.00065,1.68983269e-06,15.54627105,0.09407499654,5.157257432e-06
54524,0.1748326899,0.09,0.00065,1.68983269e-06,15.48902669,0.09387596833,5.150782528e-06
54525,0.1761325612,0.09,0.00065,1.68983269e-06,15.43222386,0.09367815448,5.144340816e-06
54526,0.1774324324,0.09,0.00065,1.68983269e-06,15.37588369,0.09348163459,5.137934986e-06
54527,0.1787323037,0.09,0.00065,1.68983269e-06,15.32002596,0.09328648394,5.1315676e-06
54528,0.1800321751,0.09,0.00065,1.68983269e-06,15.26466915,0.09309277379,5.125241096e-06
54529,0.1813320463,0.09,0.00065,1.68983269e-06,15.20983056,0.0929005716,5.118957797e-06
54530,0.1826319176,0.09,0.00065,1.68983269e-06,15.15552634,0.09270994119,5.112719915e-06
54531,0.1839317889,0.09,0.00065,1.68983269e-06,15.10177156,0.09252094298,5.106529558e-06
54532,0.1852316602,0.09,0.00065,1.68983269e-06,15.04858032,0.09233363418,5.100388737e-06
54533,0.1865315315,0.09,0.00065,1.68983269e-06,14.99596574,0.09214806897,5.094299369e-06
54534,0.1878314028,0.09,0.00065,1.68983269e-06,14.94394009,0.09196429866,5.088263284e-06
54535,0.1891312741,0.09,0.00065,1.68983269e-06,14.89251479,0.09178237188,5.082282227e-06
54536,0.1904311454,0.09,0.00065,1.68983269e-06,14.8417005,0.09160233474,5.076357869e-06
54537,0.1917310168,0.09,0.00065,1.68983269e-06,14.79150715,0.09142423096,5.070491803e-06
54538,0.193030888,0.09,0.00065,1.68983269e-06,14.74194398,0.091248102,5.064685556e-06
54539,0.1943307593,0.09,0.00065,1.68983269e-06,14.69301959,0.0910739872,5.058940587e-06
54540,0.1956306307,0.09,0.00065,1.68983269e-06,14.64474204,0.09090192404,5.053258295e-06
54541,0.1969305019,0.09,0.00065,1.68983269e-06,14.59711879,0.09073194807,5.047640021e-06
54542,0.1982303732,0.09,0.00065,1.68983269e-06,14.55015674,0.09056409286,5.042087045e-06
54543,0.1995302446,0.09,0.00065,1.68983269e-06,14.5038623,0.09039839033,5.03660059e-06
54544,0.2008301158,0.09,0.00065,1.68983269e-06,14.45824138,0.09023487075,5.031181832e-06
54545,0.2021299872,0.09,0.00065,1.68983269e-06,14.41329949,0.09007356283,5.025831894e-06
54546,0.2034298584,0.09,0.00065,1.68983269e-06,14.36904166,0.08991449382,5.020551852e-06
54547,0.2047297297,0.09,0.00065,1.68983269e-06,14.32547257,0.08975768954,5.015342737e-06
54548,0.206029601,0.09,0.00065,1.68983269e-06,14.28259649,0.08960317444,5.010205536e-06
54549,0.2073294723,0.09,0.00065,1.68983269e-06,14.24041732,0.08945097165,5.005141191e-06
54550,0.2086293436,0.09,0.00065,1.68983269e-06,14.19893863,0.08930110303,5.000150604e-06
54551,0.2099292149,0.09,0.00065,1.68983269e-06,14.15816363,0.08915358914,4.995234634e-06
54552,0.2112290862,0.09,0.00065,1.68983269e-06,14.1180952,0.08900844932,4.990394098e-06
54553,0.2125289576,0.09,0.00065,1.68983269e-06,14.07873587,0.08886570165,4.985629772e-06
54554,0.2138288288,0.09,0.00065,1.68983269e-06,14.04008788,0.08872536299,4.980942391e-06
54555,0.2151287002,0.09,0.00065,1.68983269e-06,14.00215313,0.08858744896,4.976332646e-06
54556,0.2164285714,0.09,0.00065,1.68983269e-06,13.96493318,0.08845197391,4.971801187e-06
54557,0.2177284428,0.09,0.00065,1.68983269e-06,13.92842929,0.08831895094,4.967348621e-06
54558,0.2190283141,0.09,0.00065,1.68983269e-06,13.89264238,0.08818839183,4.962975509e-06
54559,0.2203281853,0.09,0.00065,1.68983269e-06,13.85757302,0.08806030704,4.958682365e-06
54560,0.2216280567,0.09,0.00065,1.68983269e-06,13.82322144,0.08793470562,4.954469656e-06
54561,0.2229279279,0.09,0.00065,1.68983269e-06,13.78958749,0.08781159514,4.950337796e-06
54562,0.2242277992,0.09,0.00065,1.68983269e-06,13.75667066,0.08769098166,4.946287148e-06
54563,0.2255276706,0.09,0.00065,1.68983269e-06,13.72447012,0.08757287006,4.942318031e-06
54564,0.2268275418,0.09,0.00065,1.68983269e-06,13.6929849,0.08745726443,4.938430737e-06
54565,0.2281274132,0.09,0.00065,1.68983269e-06,13.66221375,0.08734416778,4.934625517e-06
54566,0.2294272844,0.09,0.00065,1.68983269e-06,13.63215499,0.08723358137,4.930902563e-06
54567,0.2307271558,0.09,0.00065,1.68983269e-06,13.60280649,0.08712550456,4.927261998e-06
54568,0.232027027,0.09,0.00065,1.68983269e-06,13.57416563,0.08701993491,4.923703882e-06
54569,0.2333268984,0.09,0.00065,1.68983269e-06,13.54622943,0.08691686824,4.920228213e-06
54570,0.2346267697,0.09,0.00065,1.68983269e-06,13.51899442,0.08681629865,4.916834929e-06
54571,0.2359266409,0.09,0.00065,1.68983269e-06,13.49245675,0.08671821841,4.9135239e-06
54572,0.2372265122,0.09,0.00065,1.68983269e-06,13.46661207,0.08662261795,4.910294933e-06
54573,0.2385263835,0.09,0.00065,1.68983269e-06,13.44145562,0.08652948584,4.907147767e-06
54574,0.2398262548,0.09,0.00065,1.68983269e-06,13.41698215,0.08643880871,4.904082071e-06
54575,0.2411261262,0.09,0.00065,1.68983269e-06,13.39318595,0.08635057128,4.901097447e-06
54576,0.2424259974,0.09,0.00065,1.68983269e-06,13.37006085,0.08626475631,4.898193426e-06
54577,0.2437258687,0.09,0.00065,1.68983269e-06,13.34760019,0.08618134461,4.895369468e-06
54578,0.24502574,0.09,0.00065,1.68983269e-06,13.32579686,0.08610031504,4.892624965e-06
54579,0.2463256114,0.09,0.00065,1.68983269e-06,13.30464326,0.08602164449,4.889959235e-06
54580,0.2476254827,0.09,0.00065,1.68983269e-06,13.28413134,0.08594530786,4.887371527e-06
54581,0.2489253539,0.09,0.00065,1.68983269e-06,13.26425255,0.0858712781,4.884861018e-06
54582,0.2502252253,0.09,0.00065,1.68983269e-06,13.2449979,0.0857995262,4.882426816e-06
54583,0.2515250965,0.09,0.00065,1.68983269e-06,13.22635791,0.0857300212,4.880067956e-06
54584,0.2528249678,0.09,0.00065,1.68983269e-06,13.20832268,0.08566273026,4.877783406e-06
54585,0.2541248392,0.09,0.00065,1.68983269e-06,13.19088183,0.08559761865,4.875572067e-06
54586,0.2554247104,0.09,0.00065,1.68983269e-06,13.17402457,0.08553464982,4.873432772e-06
54587,0.2567245818,0.09,0.00065,1.68983269e-06,13.15773968,0.08547378542,4.871364289e-06
54588,0.258024453,0.09,0.00065,1.68983269e-06,13.14201553,0.0854149854,4.869365326e-06
54589,0.2593243243,0.09,0.00065,1.68983269e-06,13.1268401,0.08535820801,4.867434526e-06
54590,0.2606241957,0.09,0.00065,1.68983269e-06,13.112201,0.08530340992,4.865570476e-06
54591,0.261924067,0.09,0.00065,1.68983269e-06,13.09808547,0.08525054628,4.863771708e-06
54592,0.2632239383,0.09,0.00065,1.68983269e-06,13.08448043,0.08519957078,4.8620367e-06
54593,0.2645238095,0.09,0.00065,1.68983269e-06,13.07137247,0.08515043576,4.86036388e-06
54594,0.2658236809,0.09,0.00065,1.68983269e-06,13.05874791,0.08510309228,4.858751629e-06
54595,0.2671235521,0.09,0.00065,1.68983269e-06,13.04659277,0.08505749025,4.857198284e-06
54596,0.2684234234,0.09,0.00065,1.68983269e-06,13.03489287,0.08501357847,4.855702145e-06
54597,0.2697232947,0.09,0.00065,1.68983269e-06,13.02363379,0.08497130483,4.854261474e-06
54598,0.271023166,0.09,0.00065,1.68983269e-06,13.01280092,0.0849306163,4.852874499e-06
54599,0.2723230374,0.09,0.00065,1.68983269e-06,13.00237949,0.08489145915,4.851539423e-06
54600,0.2736229086,0.09,0.00065,1.68983269e-06,12.99235462,0.08485377901,4.850254422e-06
54601,0.2749227799,0.09,0.00065,1.68983269e-06,12.98271131,0.08481752099,4.849017653e-06
54602,0.2762226512,0.09,0.00065,1.68983269e-06,12.9734345,0.0847826298,4.847827259e-06
54603,0.2775225225,0.09,0.00065,1.68983269e-06,12.96450908,0.0847490499,4.846681367e-06
54604,0.2788223938,0.09,0.00065,1.68983269e-06,12.95591993,0.08471672558,4.845578101e-06
54605,0.2801222651,0.09,0.00065,1.68983269e-06,12.94765196,0.08468560112,4.844515579e-06
54606,0.2814221364,0.09,0.00065,1.68983269e-06,12.93969014,0.08465562087,4.843491921e-06
54607,0.2827220078,0.09,0.00065,1.68983269e-06,12.9320195,0.08462672941,4.842505253e-06
54608,0.284021879,0.09,0.00065,1.68983269e-06,12.92462521,0.0845988717,4.841553712e-06
54609,0.2853217504,0.09,0.00065,1.68983269e-06,12.91749257,0.08457199314,4.840635448e-06
54610,0.2866216216,0.09,0.00065,1.68983269e-06,12.91060705,0.08454603965,4.839748628e-06
54611,0.2879214929,0.09,0.00065,1.68983269e-06,12.90395432,0.08452095784,4.838891442e-06
54612,0.2892213643,0.09,0.00065,1.68983269e-06,12.89752028,0.08449669512,4.838062103e-06
54613,0.2905212355,0.09,0.00065,1.68983269e-06,12.89129109,0.0844731998,4.837258857e-06
54614,0.2918211068,0.09,0.00065,1.68983269e-06,12.88525317,0.0844504212,4.836479982e-06
54615,0.2931209781,0.09,0.00065,1.68983269e-06,12.87939328,0.08442830973,4.835723791e-06
54616,0.2944208495,0.09,0.00065,1.68983269e-06,12.87369848,0.08440681699,4.834988639e-06
54617,0.2957207207,0.09,0.00065,1.68983269e-06,12.8681562,0.08438589588,4.834272923e-06
54618,0.297020592,0.09,0.00065,1.68983269e-06,12.86275426,0.0843655007,4.833575089e-06
54619,0.2983204633,0.09,0.00065,1.68983269e-06,12.85748085,0.08434558718,4.832893628e-06
54620,0.2996203346,0.09,0.00065,1.68983269e-06,12.8523246,0.08432611259,4.832227087e-06
54621,0.3009202059,0.09,0.00065,1.68983269e-06,12.84727454,0.0843070358,4.831574064e-06
54622,0.3022200772,0.09,0.00065,1.68983269e-06,12.84232019,0.08428831733,4.830933213e-06
54623,0.3035199485,0.09,0.00065,1.68983269e-06,12.8374515,0.08426991938,4.830303248e-06
54624,0.3048198199,0.09,0.00065,1.68983269e-06,12.83265887,0.08425180592,4.82968294e-06
54625,0.3061196911,0.09,0.00065,1.68983269e-06,12.82793322,0.08423394267,4.82907112e-06
54626,0.3074195625,0.09,0.00065,1.68983269e-06,12.82326592,0.08421629715,4.828466683e-06
54627,0.3087194337,0.09,0.00065,1.68983269e-06,12.81864884,0.08419883871,4.827868581e-06
54628,0.3100193051,0.09,0.00065,1.68983269e-06,12.81407433,0.08418153855,4.827275834e-06
54629,0.3113191764,0.09,0.00065,1.68983269e-06,12.80953532,0.08416436993,4.826687531e-06
54630,0.3126190477,0.09,0.00065,1.68983269e-06,12.8050253,0.08414730836,4.826102834e-06
54631,0.313918919,0.09,0.00065,1.68983269e-06,12.80053837,0.08413033149,4.825520984e-06
54632,0.3152187902,0.09,0.00065,1.68983269e-06,12.79606912,0.08411341897,4.824941286e-06
54633,0.3165186615,0.09,0.00065,1.68983269e-06,12.79161267,0.08409655226,4.824363108e-06
54634,0.3178185328,0.09,0.00065,1.68983269e-06,12.78716459,0.08407971468,4.823785882e-06
54635,0.3191184041,0.09,0.00065,1.68983269e-06,12.78272096,0.08406289138,4.823209102e-06
54636,0.3204182755,0.09,0.00065,1.68983269e-06,12.77827835,0.08404606935,4.822632324e-06
54637,0.3217181467,0.09,0.00065,1.68983269e-06,12.77383377,0.08402923734,4.822055166e-06
54638,0.323018018,0.09,0.00065,1.68983269e-06,12.76938473,0.08401238582,4.821477302e-06
54639,0.3243178893,0.09,0.00065,1.68983269e-06,12.76492916,0.08399550699,4.820898469e-06
54640,0.3256177607,0.09,0.00065,1.68983269e-06,12.76046542,0.08397859467,4.820318456e-06
54641,0.326917632,0.09,0.00065,1.68983269e-06,12.75599233,0.08396164428,4.819737107e-06
54642,0.3282175032,0.09,0.00065,1.68983269e-06,12.75150908,0.08394465276,4.819154321e-06
54643,0.3295173746,0.09,0.00065,1.68983269e-06,12.74701525,0.08392761855,4.818570044e-06
54644,0.3308172458,0.09,0.00065,1.68983269e-06,12.74251081,0.08391054146,4.817984273e-06
54645,0.3321171172,0.09,0.00065,1.68983269e-06,12.73799607,0.08389342266,4.817397047e-06
54646,0.3334169885,0.09,0.00065,1.68983269e-06,12.73347168,0.08387626459,4.816808453e-06
54647,0.3347168597,0.09,0.00065,1.68983269e-06,12.7289386,0.08385907088,4.816218616e-06
54648,0.336016731,0.09,0.00065,1.68983269e-06,12.72439807,0.08384184627,4.815627699e-06
54649,0.3373166023,0.09,0.00065,1.68983269e-06,12.71985161,0.08382459642,4.815035897e-06
54650,0.3386164737,0.09,0.00065,1.68983269e-06,12.71530096,0.08380732796,4.814443439e-06
54651,0.339916345,0.09,0.00065,1.68983269e-06,12.71074808,0.08379004833,4.81385058e-06
54652,0.3412162163,0.09,0.00065,1.68983269e-06,12.70619513,0.08377276574,4.813257603e-06
54653,0.3425160876,0.09,0.00065,1.68983269e-06,12.70164445,0.08375548904,4.812664812e-06
54654,0.3438159588,0.09,0.00065,1.68983269e-06,12.69709852,0.08373822766,4.81207253e-06
54655,0.3451158302,0.09,0.00065,1.68983269e-06,12.69255994,0.08372099151,4.811481098e-06
54656,0.3464157014,0.09,0.00065,1.68983269e-06,12.68803144,0.08370379091,4.810890871e-06
54657,0.3477155728,0.09,0.00065,1.68983269e-06,12.68351579,0.08368663647,4.810302212e-06
54658,0.3490154441,0.09,0.00065,1.68983269e-06,12.67901585,0.08366953903,4.809715494e-06
54659,0.3503153153,0.09,0.00065,1.68983269e-06,12.6745345,0.08365250958,4.809131094e-06
54660,0.3516151866,0.09,0.00065,1.68983269e-06,12.67007463,0.08363555913,4.80854939e-06
54661,0.3529150579,0.09,0.00065,1.68983269e-06,12.66563913,0.08361869868,4.807970758e-06
54662,0.3542149293,0.09,0.00065,1.68983269e-06,12.66123084,0.08360193913,4.807395574e-06
54663,0.3555148006,0.09,0.00065,1.68983269e-06,12.65685257,0.08358529117,4.806824203e-06
54664,0.3568146718,0.09,0.00065,1.68983269e-06,12.65250705,0.08356876525,4.806257004e-06
54665,0.3581145432,0.09,0.00065,1.68983269e-06,12.64819693,0.08355237148,4.805694324e-06
54666,0.3594144144,0.09,0.00065,1.68983269e-06,12.64392474,0.08353611957,4.805136495e-06
54667,0.3607142858,0.09,0.00065,1.68983269e-06,12.6396929,0.08352001878,4.804583835e-06
54668,0.362014157,0.09,0.00065,1.68983269e-06,12.63550368,0.08350407783,4.804036642e-06
54669,0.3633140283,0.09,0.00065,1.68983269e-06,12.6313592,0.08348830486,4.803495195e-06
54670,0.3646138997,0.09,0.00065,1.68983269e-06,12.62726143,0.08347270739,4.802959751e-06
54671,0.3659137709,0.09,0.00065,1.68983269e-06,12.62321212,0.08345729223,4.802430544e-06
54672,0.3672136423,0.09,0.00065,1.68983269e-06,12.61921287,0.08344206547,4.801907782e-06
54673,0.3685135135,0.09,0.00065,1.68983269e-06,12.61526505,0.08342703246,4.801391646e-06
54674,0.3698133848,0.09,0.00065,1.68983269e-06,12.61136982,0.0834121977,4.800882291e-06
54675,0.3711132561,0.09,0.00065,1.68983269e-06,12.60752813,0.08339756488,4.800379842e-06
54676,0.3724131274,0.09,0.00065,1.68983269e-06,12.60374071,0.08338313683,4.799884394e-06
54677,0.3737129987,0.09,0.00065,1.68983269e-06,12.60000803,0.0833689155,4.799396014e-06
54678,0.3750128701,0.09,0.00065,1.68983269e-06,12.59633036,0.08335490192,4.798914734e-06
54679,0.3763127413,0.09,0.00065,1.68983269e-06,12.59270771,0.08334109621,4.798440559e-06
54680,0.3776126126,0.09,0.00065,1.68983269e-06,12.58913983,0.08332749756,4.797973457e-06
54681,0.3789124839,0.09,0.00065,1.68983269e-06,12.58562626,0.08331410423,4.797513369e-06
54682,0.3802123553,0.09,0.00065,1.68983269e-06,12.58216626,0.08330091354,4.797060199e-06
54683,0.3815122265,0.09,0.00065,1.68983269e-06,12.57875889,0.08328792189,4.796613822e-06
54684,0.3828120978,0.09,0.00065,1.68983269e-06,12.57540294,0.08327512482,4.796174084e-06
54685,0.3841119692,0.09,0.00065,1.68983269e-06,12.57209703,0.0832625171,4.795740803e-06
54686,0.3854118404,0.09,0.00065,1.68983269e-06,12.56883958,0.08325009277,4.795313771e-06
54687,0.3867117118,0.09,0.00065,1.68983269e-06,12.56562881,0.08323784508,4.794892756e-06
54688,0.388011583,0.09,0.00065,1.68983269e-06,12.56246272,0.08322576651,4.794477496e-06
54689,0.3893114543,0.09,0.00065,1.68983269e-06,12.55933912,0.08321384871,4.794067704e-06
54690,0.3906113256,0.09,0.00065,1.68983269e-06,12.5562556,0.08320208254,4.793663062e-06
54691,0.3919111969,0.09,0.00065,1.68983269e-06,12.55320955,0.08319045816,4.793263231e-06
54692,0.3932110683,0.09,0.00065,1.68983269e-06,12.55019822,0.08317896502,4.792867847e-06
54693,0.3945109395,0.09,0.00065,1.68983269e-06,12.54721867,0.08316759199,4.792476525e-06
54694,0.3958108108,0.09,0.00065,1.68983269e-06,12.54426781,0.08315632731,4.79208886e-06
54695,0.3971106822,0.09,0.00065,1.68983269e-06,12.54134243,0.08314515873,4.791704428e-06
54696,0.3984105534,0.09,0.00065,1.68983269e-06,12.53843918,0.08313407352,4.79132279e-06
54697,0.3997104248,0.09,0.00065,1.68983269e-06,12.53555461,0.08312305855,4.790943494e-06
54698,0.4010102961,0.09,0.00065,1.68983269e-06,12.53268519,0.08311210031,4.790566074e-06
54699,0.4023101674,0.09,0.00065,1.68983269e-06,12.5298273,0.08310118498,4.790190053e-06
54700,0.4036100386,0.09,0.00065,1.68983269e-06,12.52697725,0.08309029853,4.789814948e-06
54701,0.4049099099,0.09,0.00065,1.68983269e-06,12.52413131,0.08307942671,4.789440268e-06
54702,0.4062097812,0.09,0.00065,1.68983269e-06,12.52128573,0.08306855516,4.789065518e-06
54703,0.4075096525,0.09,0.00065,1.68983269e-06,12.51843673,0.08305766947,4.788690202e-06
54704,0.4088095238,0.09,0.00065,1.68983269e-06,12.51558054,0.08304675521,4.788313823e-06
54705,0.4101093951,0.09,0.00065,1.68983269e-06,12.5127134,0.08303579803,4.787935887e-06
54706,0.4114092664,0.09,0.00065,1.68983269e-06,12.5098316,0.08302478372,4.787555905e-06
54707,0.4127091377,0.09,0.00065,1.68983269e-06,12.50693148,0.08301369823,4.787173393e-06
54708,0.414009009,0.09,0.00065,1.68983269e-06,12.50400943,0.08300252778,4.786787879e-06
54709,0.4153088803,0.09,0.00065,1.68983269e-06,12.50106192,0.08299125887,4.786398897e-06
54710,0.4166087516,0.09,0.00065,1.68983269e-06,12.49808554,0.08297987839,4.786005996e-06
54711,0.4179086229,0.09,0.00065,1.68983269e-06,12.49507697,0.0829683736,4.78560874e-06
54712,0.4192084942,0.09,0.00065,1.68983269e-06,12.49203301,0.08295673228,4.785206708e-06
54713,0.4205083655,0.09,0.00065,1.68983269e-06,12.48895063,0.08294494271,4.784799497e-06
54714,0.4218082368,0.09,0.00065,1.68983269e-06,12.48582691,0.08293299376,4.784386726e-06
54715,0.4231081081,0.09,0.00065,1.68983269e-06,12.48265913,0.08292087494,4.783968034e-06
54716,0.4244079795,0.09,0.00065,1.68983269e-06,12.47944475,0.08290857642,4.783543085e-06
54717,0.4257078508,0.09,0.00065,1.68983269e-06,12.47618139,0.0828960891,4.783111567e-06
54718,0.4270077221,0.09,0.00065,1.68983269e-06,12.47286689,0.08288340464,4.782673193e-06
54719,0.4283075934,0.09,0.00065,1.68983269e-06,12.4694993,0.08287051549,4.782227706e-06
54720,0.4296074646,0.09,0.00065,1.68983269e-06,12.46607688,0.08285741493,4.781774875e-06
54721,0.430907336,0.09,0.00065,1.68983269e-06,12.46259813,0.0828440971,4.781314501e-06
54722,0.4322072072,0.09,0.00065,1.68983269e-06,12.45906176,0.08283055704,4.780846416e-06
54723,0.4335070786,0.09,0.00065,1.68983269e-06,12.45546674,0.08281679068,4.780370479e-06
54724,0.4348069498,0.09,0.00065,1.68983269e-06,12.45181228,0.0828027949,4.779886587e-06
54725,0.4361068211,0.09,0.00065,1.68983269e-06,12.44809781,0.08278856749,4.779394664e-06
54726,0.4374066924,0.09,0.00065,1.68983269e-06,12.44432305,0.08277410721,4.778894671e-06