cellI,x,y,z,S,Ux,Uy,Uz
41054,1.5,0.01070175438,0.0007,1.964912278e-06,2.83670784,-0.003996811265,0
41411,1.5,0.01210526315,0.0007,1.964912278e-06,2.898570927,-0.004248230921,0
41768,1.5,0.01350877193,0.0007,1.964912292e-06,2.959630571,-0.004393816265,0
42125,1.5,0.0149122807,0.0007,1.964912278e-06,3.020094825,-0.004427821593,0
42482,1.5,0.01631578948,0.0007,1.964912278e-06,3.07994694,-0.004347874252,0
42839,1.5,0.01771929825,0.0007,1.964912278e-06,3.138983952,-0.004155780286,0
43196,1.5,0.01912280701,0.0007,1.964912278e-06,3.196821245,-0.003856057593,0
43553,1.5,0.02052631579,0.0007,1.964912292e-06,3.252873454,-0.003459462002,0
43910,1.5,0.02192982456,0.0007,1.964912278e-06,3.306301474,-0.002983287066,0
44267,1.5,0.02333333334,0.0007,1.964912278e-06,3.355927119,-0.002454617848,0
44624,1.5,0.02473684211,0.0007,1.964912278e-06,3.400140219,-0.001913393199,0
44981,1.5,0.02614035087,0.0007,1.964912278e-06,3.436945875,-0.001414994278,0
45338,1.5,0.02754385965,0.0007,1.964912292e-06,3.464576366,-0.001023756821,0
45695,1.5,0.02894736842,0.0007,1.964912278e-06,3.48287744,-0.0007802550252,0
46052,1.5,0.0303508772,0.0007,1.964912278e-06,3.493883393,-0.0006646584873,0
46409,1.5,0.03175438596,0.0007,1.964912278e-06,3.500335396,-0.0006337460524,0
46766,1.5,0.03315789474,0.0007,1.964912278e-06,3.504244602,-0.000653387538,0
47123,1.5,0.0345614035,0.0007,1.964912278e-06,3.506746589,-0.0007016487159,0
47480,1.5,0.03596491228,0.0007,1.964912292e-06,3.508432536,-0.000767440485,0
47837,1.5,0.03736842106,0.0007,1.964912278e-06,3.509612386,-0.0008437264669,0
48194,1.5,0.03877192983,0.0007,1.964912278e-06,3.510456508,-0.0009268387566,0
48551,1.5,0.04017543859,0.0007,1.964912278e-06,3.511063449,-0.001014364736,0
48908,1.5,0.04157894736,0.0007,1.964912278e-06,3.511492788,-0.001104779667,0
49265,1.5,0.04298245614,0.0007,1.964912292e-06,3.511781457,-0.001197252223,0
49622,1.5,0.04438596492,0.0007,1.964912278e-06,3.511952272,-0.001289363114,0
49979,1.5,0.04578947368,0.0007,1.964912278e-06,3.512018441,-0.001385508026,0
50336,1.5,0.04719298246,0.0007,1.964912278e-06,3.511985327,-0.001479447074,0
50693,1.5,0.04859649123,0.0007,1.964912278e-06,3.511852872,-0.001573258944,0
51050,1.5,0.05,0.0007,1.964912292e-06,3.511613987,-0.001665926774,0
51407,1.5,0.05140350877,0.0007,1.964912278e-06,3.511254804,-0.001757642143,0
51764,1.5,0.05280701754,0.0007,1.964912278e-06,3.510752333,-0.001847445694,0
52121,1.5,0.05421052632,0.0007,1.964912278e-06,3.510071038,-0.001934633868,0
52478,1.5,0.05561403508,0.0007,1.964912278e-06,3.509156774,-0.002018207,0
52835,1.5,0.05701754386,0.0007,1.964912292e-06,3.507926364,-0.002096794246,0
53192,1.5,0.05842105263,0.0007,1.964912278e-06,3.506249439,-0.002168313185,0
53549,1.5,0.0598245614,0.0007,1.964912278e-06,3.503916316,-0.002229823453,0
53906,1.5,0.06122807018,0.0007,1.964912278e-06,3.500582148,-0.002276403534,0
54263,1.5,0.06263157895,0.0007,1.964912278e-06,3.49567463,-0.002300942311,0
54620,1.5,0.06403508772,0.0007,1.964912292e-06,3.488269522,-0.002291984657,0
54977,1.5,0.0654385965,0.0007,1.964912278e-06,3.477014457,-0.002234580492,0
55334,1.5,0.06684210527,0.0007,1.964912278e-06,3.460316489,-0.00211350404,0
55691,1.5,0.06824561403,0.0007,1.964912278e-06,3.436941085,-0.001921310711,0
56048,1.5,0.0696491228,0.0007,1.964912278e-06,3.406578991,-0.001668014188,0
56405,1.5,0.07105263157,0.0007,1.964912278e-06,3.369775832,-0.001374440634,0
56762,1.5,0.07245614035,0.0007,1.964912292e-06,3.327414673,-0.001064151175,0
57119,1.5,0.07385964912,0.0007,1.964912278e-06,3.280309696,-0.0007576356645,0
57476,1.5,0.07526315789,0.0007,1.964912278e-06,3.22904538,-0.0004716027535,0
57833,1.5,0.07666666666,0.0007,1.964912278e-06,3.173939855,-0.000218727494,0
58190,1.5,0.07807017543,0.0007,1.964912278e-06,3.11502957,-9.490966863e-06,0
58547,1.5,0.07947368421,0.0007,1.964912292e-06,3.052051421,0.0001504202453,0
58904,1.5,0.08087719298,0.0007,1.964912278e-06,2.984259227,0.0002582913197,0
59261,1.5,0.08228070175,0.0007,1.964912278e-06,2.910172655,0.0003132868297,0
59618,1.5,0.08368421052,0.0007,1.964912278e-06,2.827060668,0.000318064332,0
59975,1.5,0.08508771929,0.0007,1.964912278e-06,2.729704055,0.0002791242338,0
60332,1.5,0.08649122807,0.0007,1.964912292e-06,2.607179191,0.0002074161102,0
60689,1.5,0.08789473685,0.0007,1.964912278e-06,2.432545365,0.0001183371116,0
61046,1.5,0.08929824561,0.0007,1.964912278e-06,2.104617604,3.217135341e-05,0
61403,1.5,0.0007142857145,0.0007,2.000000001e-06,2.027051719,-0.0002455647647,0
61760,1.5,0.002142857143,0.0007,1.999999999e-06,2.31245255,-0.0008284059104,0
62117,1.5,0.003571428571,0.0007,2.000000001e-06,2.455230876,-0.001460756956,0
62474,1.5,0.005,0.0007,1.999999999e-06,2.554129607,-0.002084130016,0
62831,1.5,0.006428571429,0.0007,2.000000001e-06,2.634582224,-0.002670269741,0
63188,1.5,0.007857142857,0.0007,1.999999999e-06,2.706090192,-0.003195760929,0
63545,1.5,0.009285714285,0.0007,2.000000001e-06,2.772934671,-0.003643514197,0
