cellI,x,y,z,S,Ux,Uy,Uz
52836,0.00064993565,0.09,0.00065,1.68983269e-06,0,0,0
52837,0.00194980695,0.09,0.00065,1.68983269e-06,0,0,0
52838,0.00324967825,0.09,0.00065,1.68983269e-06,0,0,0
52839,0.004549549549,0.09,0.00065,1.689832689e-06,0,0,0
52840,0.005849420849,0.09,0.00065,1.68983269e-06,0,0,0
52841,0.007149292149,0.09,0.00065,1.68983269e-06,0,0,0
52842,0.008449163449,0.09,0.00065,1.68983269e-06,0,0,0
52843,0.00974903475,0.09,0.00065,1.689832691e-06,0,0,0
52844,0.01104890605,0.09,0.00065,1.68983269e-06,0,0,0
52845,0.01234877735,0.09,0.00065,1.68983269e-06,0,0,0
52846,0.01364864865,0.09,0.00065,1.68983269e-06,0,0,0
52847,0.01494851995,0.09,0.00065,1.68983269e-06,0,0,0
52848,0.01624839125,0.09,0.00065,1.68983269e-06,0,0,0
52849,0.01754826255,0.09,0.00065,1.68983269e-06,0,0,0
52850,0.01884813385,0.09,0.00065,1.68983269e-06,0,0,0
52851,0.02014800515,0.09,0.00065,1.68983269e-06,0,0,0
52852,0.02144787645,0.09,0.00065,1.68983269e-06,0,0,0
52853,0.02274774775,0.09,0.00065,1.68983269e-06,0,0,0
52854,0.02404761905,0.09,0.00065,1.68983269e-06,0,0,0
52855,0.02534749035,0.09,0.00065,1.68983269e-06,0,0,0
52856,0.02664736165,0.09,0.00065,1.68983269e-06,0,0,0
52857,0.02794723295,0.09,0.00065,1.68983269e-06,0,0,0
52858,0.02924710425,0.09,0.00065,1.68983269e-06,0,0,0
52859,0.03054697555,0.09,0.00065,1.68983269e-06,0,0,0
52860,0.03184684685,0.09,0.00065,1.68983269e-06,0,0,0
52861,0.03314671815,0.09,0.00065,1.68983269e-06,0,0,0
52862,0.03444658945,0.09,0.00065,1.68983269e-06,0,0,0
52863,0.03574646075,0.09,0.00065,1.68983269e-06,0,0,0
52864,0.03704633205,0.09,0.00065,1.68983269e-06,0,0,0
52865,0.03834620335,0.09,0.00065,1.68983269e-06,0,0,0
52866,0.03964607465,0.09,0.00065,1.68983269e-06,0,0,0
52867,0.04094594595,0.09,0.00065,1.68983269e-06,0,0,0
52868,0.04224581725,0.09,0.00065,1.68983269e-06,0,0,0
52869,0.04354568855,0.09,0.00065,1.68983269e-06,0,0,0
52870,0.04484555985,0.09,0.00065,1.68983269e-06,0,0,0
52871,0.04614543115,0.09,0.00065,1.68983269e-06,0,0,0
52872,0.04744530245,0.09,0.00065,1.68983269e-06,0,0,0
52873,0.04874517375,0.09,0.00065,1.68983269e-06,0,0,0
52874,0.05004504504,0.09,0.00065,1.689832677e-06,0,0,0
52875,0.05134491634,0.09,0.00065,1.68983269e-06,0,0,0
52876,0.05264478764,0.09,0.00065,1.68983269e-06,0,0,0
52877,0.05394465894,0.09,0.00065,1.68983269e-06,0,0,0
52878,0.05524453024,0.09,0.00065,1.68983269e-06,0,0,0
52879,0.05654440154,0.09,0.00065,1.68983269e-06,0,0,0
52880,0.05784427284,0.09,0.00065,1.68983269e-06,0,0,0
52881,0.05914414414,0.09,0.00065,1.68983269e-06,0,0,0
52882,0.06044401544,0.09,0.00065,1.68983269e-06,0,0,0
52883,0.06174388674,0.09,0.00065,1.68983269e-06,0,0,0
52884,0.06304375804,0.09,0.00065,1.68983269e-06,0,0,0
52885,0.06434362934,0.09,0.00065,1.68983269e-06,0,0,0
52886,0.06564350064,0.09,0.00065,1.68983269e-06,0,0,0
52887,0.06694337194,0.09,0.00065,1.68983269e-06,0,0,0
52888,0.06824324324,0.09,0.00065,1.68983269e-06,0,0,0
52889,0.06954311454,0.09,0.00065,1.68983269e-06,0,0,0
52890,0.07084298584,0.09,0.00065,1.68983269e-06,0,0,0
52891,0.07214285714,0.09,0.00065,1.68983269e-06,0,0,0
52892,0.07344272844,0.09,0.00065,1.68983269e-06,0,0,0
52893,0.07474259974,0.09,0.00065,1.68983269e-06,0,0,0
52894,0.07604247104,0.09,0.00065,1.68983269e-06,0,0,0
52895,0.07734234234,0.09,0.00065,1.68983269e-06,0,0,0
52896,0.07864221364,0.09,0.00065,1.68983269e-06,0,0,0
52897,0.07994208494,0.09,0.00065,1.68983269e-06,0,0,0
52898,0.08124195624,0.09,0.00065,1.68983269e-06,0,0,0
52899,0.08254182754,0.09,0.00065,1.68983269e-06,0,0,0
52900,0.08384169884,0.09,0.00065,1.68983269e-06,0,0,0
52901,0.08514157014,0.09,0.00065,1.68983269e-06,0,0,0
52902,0.08644144144,0.09,0.00065,1.68983269e-06,0,0,0
52903,0.08774131274,0.09,0.00065,1.68983269e-06,0,0,0
52904,0.08904118404,0.09,0.00065,1.68983269e-06,0,0,0
52905,0.09034105534,0.09,0.00065,1.68983269e-06,0,0,0
52906,0.09164092664,0.09,0.00065,1.68983269e-06,0,0,0
52907,0.09294079794,0.09,0.00065,1.68983269e-06,0,0,0
52908,0.09424066924,0.09,0.00065,1.68983269e-06,0,0,0
52909,0.09554054054,0.09,0.00065,1.68983269e-06,0,0,0
52910,0.09684041184,0.09,0.00065,1.68983269e-06,0,0,0
52911,0.09814028314,0.09,0.00065,1.68983269e-06,0,0,0
52912,0.09944015444,0.09,0.00065,1.689832703e-06,0,0,0
52913,0.1007400257,0.09,0.00065,1.68983269e-06,0,0,0
52914,0.102039897,0.09,0.00065,1.68983269e-06,0,0,0
52915,0.1033397683,0.09,0.00065,1.68983269e-06,0,0,0
52916,0.1046396397,0.09,0.00065,1.68983269e-06,0,0,0
52917,0.1059395109,0.09,0.00065,1.68983269e-06,0,0,0
52918,0.1072393822,0.09,0.00065,1.68983269e-06,0,0,0
52919,0.1085392535,0.09,0.00065,1.68983269e-06,0,0,0
52920,0.1098391248,0.09,0.00065,1.68983269e-06,0,0,0
52921,0.1111389961,0.09,0.00065,1.68983269e-06,0,0,0
52922,0.1124388675,0.09,0.00065,1.68983269e-06,0,0,0
52923,0.1137387387,0.09,0.00065,1.68983269e-06,0,0,0
52924,0.11503861,0.09,0.00065,1.68983269e-06,0,0,0
52925,0.1163384814,0.09,0.00065,1.68983269e-06,0,0,0
52926,0.1176383526,0.09,0.00065,1.68983269e-06,0,0,0
52927,0.118938224,0.09,0.00065,1.68983269e-06,0,0,0
52928,0.1202380952,0.09,0.00065,1.68983269e-06,0,0,0
52929,0.1215379666,0.09,0.00065,1.68983269e-06,0,0,0
52930,0.1228378378,0.09,0.00065,1.68983269e-06,0,0,0
52931,0.1241377092,0.09,0.00065,1.68983269e-06,0,0,0
52932,0.1254375805,0.09,0.00065,1.68983269e-06,0,0,0
52933,0.1267374518,0.09,0.00065,1.68983269e-06,0,0,0
52934,0.1280373231,0.09,0.00065,1.68983269e-06,0,0,0
52935,0.1293371943,0.09,0.00065,1.68983269e-06,0,0,0
52936,0.1306370656,0.09,0.00065,1.68983269e-06,0,0,0
52937,0.1319369369,0.09,0.00065,1.68983269e-06,0,0,0
52938,0.1332368083,0.09,0.00065,1.68983269e-06,0,0,0
52939,0.1345366796,0.09,0.00065,1.68983269e-06,0,0,0
52940,0.1358365509,0.09,0.00065,1.68983269e-06,0,0,0
52941,0.1371364221,0.09,0.00065,1.68983269e-06,0,0,0
52942,0.1384362934,0.09,0.00065,1.68983269e-06,0,0,0
52943,0.1397361647,0.09,0.00065,1.68983269e-06,0,0,0
52944,0.141036036,0.09,0.00065,1.68983269e-06,0,0,0
52945,0.1423359074,0.09,0.00065,1.68983269e-06,0,0,0
52946,0.1436357787,0.09,0.00065,1.68983269e-06,0,0,0
52947,0.1449356499,0.09,0.00065,1.68983269e-06,0,0,0
52948,0.1462355213,0.09,0.00065,1.68983269e-06,0,0,0
52949,0.1475353925,0.09,0.00065,1.68983269e-06,0,0,0
52950,0.1488352638,0.09,0.00065,1.68983269e-06,0,0,0
52951,0.1501351351,0.09,0.00065,1.68983269e-06,0,0,0
52952,0.1514350065,0.09,0.00065,1.68983269e-06,0,0,0
52953,0.1527348777,0.09,0.00065,1.68983269e-06,0,0,0
52954,0.154034749,0.09,0.00065,1.68983269e-06,0,0,0
52955,0.1553346203,0.09,0.00065,1.68983269e-06,0,0,0
52956,0.1566344916,0.09,0.00065,1.68983269e-06,0,0,0
52957,0.157934363,0.09,0.00065,1.68983269e-06,0,0,0
52958,0.1592342343,0.09,0.00065,1.68983269e-06,0,0,0
52959,0.1605341055,0.09,0.00065,1.68983269e-06,0,0,0
52960,0.1618339768,0.09,0.00065,1.68983269e-06,0,0,0
52961,0.1631338481,0.09,0.00065,1.68983269e-06,0,0,0
52962,0.1644337195,0.09,0.00065,1.68983269e-06,0,0,0
52963,0.1657335907,0.09,0.00065,1.68983269e-06,0,0,0
52964,0.167033462,0.09,0.00065,1.68983269e-06,0,0,0
52965,0.1683333334,0.09,0.00065,1.68983269e-06,0,0,0
52966,0.1696332046,0.09,0.00065,1.68983269e-06,0,0,0
52967,0.1709330759,0.09,0.00065,1.68983269e-06,0,0,0
52968,0.1722329473,0.09,0.00065,1.68983269e-06,0,0,0
52969,0.1735328186,0.09,0.00065,1.68983269e-06,0,0,0
52970,0.1748326899,0.09,0.00065,1.68983269e-06,0,0,0
52971,0.1761325612,0.09,0.00065,1.68983269e-06,0,0,0
52972,0.1774324324,0.09,0.00065,1.68983269e-06,0,0,0
52973,0.1787323037,0.09,0.00065,1.68983269e-06,0,0,0
52974,0.1800321751,0.09,0.00065,1.68983269e-06,0,0,0
52975,0.1813320463,0.09,0.00065,1.68983269e-06,0,0,0
52976,0.1826319176,0.09,0.00065,1.68983269e-06,0,0,0
52977,0.1839317889,0.09,0.00065,1.68983269e-06,0,0,0
52978,0.1852316602,0.09,0.00065,1.68983269e-06,0,0,0
52979,0.1865315315,0.09,0.00065,1.68983269e-06,0,0,0
52980,0.1878314028,0.09,0.00065,1.68983269e-06,0,0,0
52981,0.1891312741,0.09,0.00065,1.68983269e-06,0,0,0
52982,0.1904311454,0.09,0.00065,1.68983269e-06,0,0,0
52983,0.1917310168,0.09,0.00065,1.68983269e-06,0,0,0
52984,0.193030888,0.09,0.00065,1.68983269e-06,0,0,0
52985,0.1943307593,0.09,0.00065,1.68983269e-06,0,0,0
52986,0.1956306307,0.09,0.00065,1.68983269e-06,0,0,0
52987,0.1969305019,0.09,0.00065,1.68983269e-06,0,0,0
52988,0.1982303732,0.09,0.00065,1.68983269e-06,0,0,0
52989,0.1995302446,0.09,0.00065,1.68983269e-06,0,0,0
52990,0.2008301158,0.09,0.00065,1.68983269e-06,0,0,0
52991,0.2021299872,0.09,0.00065,1.68983269e-06,0,0,0
52992,0.2034298584,0.09,0.00065,1.68983269e-06,0,0,0
52993,0.2047297297,0.09,0.00065,1.68983269e-06,0,0,0
52994,0.206029601,0.09,0.00065,1.68983269e-06,0,0,0
52995,0.2073294723,0.09,0.00065,1.68983269e-06,0,0,0
52996,0.2086293436,0.09,0.00065,1.68983269e-06,0,0,0
52997,0.2099292149,0.09,0.00065,1.68983269e-06,0,0,0
52998,0.2112290862,0.09,0.00065,1.68983269e-06,0,0,0
52999,0.2125289576,0.09,0.00065,1.68983269e-06,0,0,0
53000,0.2138288288,0.09,0.00065,1.68983269e-06,0,0,0
53001,0.2151287002,0.09,0.00065,1.68983269e-06,0,0,0
53002,0.2164285714,0.09,0.00065,1.68983269e-06,0,0,0
53003,0.2177284428,0.09,0.00065,1.68983269e-06,0,0,0
53004,0.2190283141,0.09,0.00065,1.68983269e-06,0,0,0
53005,0.2203281853,0.09,0.00065,1.68983269e-06,0,0,0
53006,0.2216280567,0.09,0.00065,1.68983269e-06,0,0,0
53007,0.2229279279,0.09,0.00065,1.68983269e-06,0,0,0
53008,0.2242277992,0.09,0.00065,1.68983269e-06,0,0,0
53009,0.2255276706,0.09,0.00065,1.68983269e-06,0,0,0
53010,0.2268275418,0.09,0.00065,1.68983269e-06,0,0,0
53011,0.2281274132,0.09,0.00065,1.68983269e-06,0,0,0
53012,0.2294272844,0.09,0.00065,1.68983269e-06,0,0,0
53013,0.2307271558,0.09,0.00065,1.68983269e-06,0,0,0
53014,0.232027027,0.09,0.00065,1.68983269e-06,0,0,0
53015,0.2333268984,0.09,0.00065,1.68983269e-06,0,0,0
53016,0.2346267697,0.09,0.00065,1.68983269e-06,0,0,0
53017,0.2359266409,0.09,0.00065,1.68983269e-06,0,0,0
53018,0.2372265122,0.09,0.00065,1.68983269e-06,0,0,0
53019,0.2385263835,0.09,0.00065,1.68983269e-06,0,0,0
53020,0.2398262548,0.09,0.00065,1.68983269e-06,0,0,0
53021,0.2411261262,0.09,0.00065,1.68983269e-06,0,0,0
53022,0.2424259974,0.09,0.00065,1.68983269e-06,0,0,0
53023,0.2437258687,0.09,0.00065,1.68983269e-06,0,0,0
53024,0.24502574,0.09,0.00065,1.68983269e-06,0,0,0
53025,0.2463256114,0.09,0.00065,1.68983269e-06,0,0,0
53026,0.2476254827,0.09,0.00065,1.68983269e-06,0,0,0
53027,0.2489253539,0.09,0.00065,1.68983269e-06,0,0,0
53028,0.2502252253,0.09,0.00065,1.68983269e-06,0,0,0
53029,0.2515250965,0.09,0.00065,1.68983269e-06,0,0,0
53030,0.2528249678,0.09,0.00065,1.68983269e-06,0,0,0
53031,0.2541248392,0.09,0.00065,1.68983269e-06,0,0,0
53032,0.2554247104,0.09,0.00065,1.68983269e-06,0,0,0
53033,0.2567245818,0.09,0.00065,1.68983269e-06,0,0,0
53034,0.258024453,0.09,0.00065,1.68983269e-06,0,0,0
53035,0.2593243243,0.09,0.00065,1.68983269e-06,0,0,0
53036,0.2606241957,0.09,0.00065,1.68983269e-06,0,0,0
53037,0.261924067,0.09,0.00065,1.68983269e-06,0,0,0
53038,0.2632239383,0.09,0.00065,1.68983269e-06,0,0,0
53039,0.2645238095,0.09,0.00065,1.68983269e-06,0,0,0
53040,0.2658236809,0.09,0.00065,1.68983269e-06,0,0,0
53041,0.2671235521,0.09,0.00065,1.68983269e-06,0,0,0
53042,0.2684234234,0.09,0.00065,1.68983269e-06,0,0,0
53043,0.2697232947,0.09,0.00065,1.68983269e-06,0,0,0
53044,0.271023166,0.09,0.00065,1.68983269e-06,0,0,0
53045,0.2723230374,0.09,0.00065,1.68983269e-06,0,0,0
53046,0.2736229086,0.09,0.00065,1.68983269e-06,0,0,0
53047,0.2749227799,0.09,0.00065,1.68983269e-06,0,0,0
53048,0.2762226512,0.09,0.00065,1.68983269e-06,0,0,0
53049,0.2775225225,0.09,0.00065,1.68983269e-06,0,0,0
53050,0.2788223938,0.09,0.00065,1.68983269e-06,0,0,0
53051,0.2801222651,0.09,0.00065,1.68983269e-06,0,0,0
53052,0.2814221364,0.09,0.00065,1.68983269e-06,0,0,0
53053,0.2827220078,0.09,0.00065,1.68983269e-06,0,0,0
53054,0.284021879,0.09,0.00065,1.68983269e-06,0,0,0
53055,0.2853217504,0.09,0.00065,1.68983269e-06,0,0,0
53056,0.2866216216,0.09,0.00065,1.68983269e-06,0,0,0
53057,0.2879214929,0.09,0.00065,1.68983269e-06,0,0,0
53058,0.2892213643,0.09,0.00065,1.68983269e-06,0,0,0
53059,0.2905212355,0.09,0.00065,1.68983269e-06,0,0,0
53060,0.2918211068,0.09,0.00065,1.68983269e-06,0,0,0
53061,0.2931209781,0.09,0.00065,1.68983269e-06,0,0,0
53062,0.2944208495,0.09,0.00065,1.68983269e-06,0,0,0
53063,0.2957207207,0.09,0.00065,1.68983269e-06,0,0,0
53064,0.297020592,0.09,0.00065,1.68983269e-06,0,0,0
53065,0.2983204633,0.09,0.00065,1.68983269e-06,0,0,0
53066,0.2996203346,0.09,0.00065,1.68983269e-06,0,0,0
53067,0.3009202059,0.09,0.00065,1.68983269e-06,0,0,0
53068,0.3022200772,0.09,0.00065,1.68983269e-06,0,0,0
53069,0.3035199485,0.09,0.00065,1.68983269e-06,0,0,0
53070,0.3048198199,0.09,0.00065,1.68983269e-06,0,0,0
53071,0.3061196911,0.09,0.00065,1.68983269e-06,0,0,0
53072,0.3074195625,0.09,0.00065,1.68983269e-06,0,0,0
53073,0.3087194337,0.09,0.00065,1.68983269e-06,0,0,0
53074,0.3100193051,0.09,0.00065,1.68983269e-06,0,0,0
53075,0.3113191764,0.09,0.00065,1.68983269e-06,0,0,0
53076,0.3126190477,0.09,0.00065,1.68983269e-06,0,0,0
53077,0.313918919,0.09,0.00065,1.68983269e-06,0,0,0
53078,0.3152187902,0.09,0.00065,1.68983269e-06,0,0,0
53079,0.3165186615,0.09,0.00065,1.68983269e-06,0,0,0
53080,0.3178185328,0.09,0.00065,1.68983269e-06,0,0,0
53081,0.3191184041,0.09,0.00065,1.68983269e-06,0,0,0
53082,0.3204182755,0.09,0.00065,1.68983269e-06,0,0,0
53083,0.3217181467,0.09,0.00065,1.68983269e-06,0,0,0
53084,0.323018018,0.09,0.00065,1.68983269e-06,0,0,0
53085,0.3243178893,0.09,0.00065,1.68983269e-06,0,0,0
53086,0.3256177607,0.09,0.00065,1.68983269e-06,0,0,0
53087,0.326917632,0.09,0.00065,1.68983269e-06,0,0,0
53088,0.3282175032,0.09,0.00065,1.68983269e-06,0,0,0
53089,0.3295173746,0.09,0.00065,1.68983269e-06,0,0,0
53090,0.3308172458,0.09,0.00065,1.68983269e-06,0,0,0
53091,0.3321171172,0.09,0.00065,1.68983269e-06,0,0,0
53092,0.3334169885,0.09,0.00065,1.68983269e-06,0,0,0
53093,0.3347168597,0.09,0.00065,1.68983269e-06,0,0,0
53094,0.336016731,0.09,0.00065,1.68983269e-06,0,0,0
53095,0.3373166023,0.09,0.00065,1.68983269e-06,0,0,0
53096,0.3386164737,0.09,0.00065,1.68983269e-06,0,0,0
53097,0.339916345,0.09,0.00065,1.68983269e-06,0,0,0
53098,0.3412162163,0.09,0.00065,1.68983269e-06,0,0,0
53099,0.3425160876,0.09,0.00065,1.68983269e-06,0,0,0
53100,0.3438159588,0.09,0.00065,1.68983269e-06,0,0,0
53101,0.3451158302,0.09,0.00065,1.68983269e-06,0,0,0
53102,0.3464157014,0.09,0.00065,1.68983269e-06,0,0,0
53103,0.3477155728,0.09,0.00065,1.68983269e-06,0,0,0
53104,0.3490154441,0.09,0.00065,1.68983269e-06,0,0,0
53105,0.3503153153,0.09,0.00065,1.68983269e-06,0,0,0
53106,0.3516151866,0.09,0.00065,1.68983269e-06,0,0,0
53107,0.3529150579,0.09,0.00065,1.68983269e-06,0,0,0
53108,0.3542149293,0.09,0.00065,1.68983269e-06,0,0,0
53109,0.3555148006,0.09,0.00065,1.68983269e-06,0,0,0
53110,0.3568146718,0.09,0.00065,1.68983269e-06,0,0,0
53111,0.3581145432,0.09,0.00065,1.68983269e-06,0,0,0
53112,0.3594144144,0.09,0.00065,1.68983269e-06,0,0,0
53113,0.3607142858,0.09,0.00065,1.68983269e-06,0,0,0
53114,0.362014157,0.09,0.00065,1.68983269e-06,0,0,0
53115,0.3633140283,0.09,0.00065,1.68983269e-06,0,0,0
53116,0.3646138997,0.09,0.00065,1.68983269e-06,0,0,0
53117,0.3659137709,0.09,0.00065,1.68983269e-06,0,0,0
53118,0.3672136423,0.09,0.00065,1.68983269e-06,0,0,0
53119,0.3685135135,0.09,0.00065,1.68983269e-06,0,0,0
53120,0.3698133848,0.09,0.00065,1.68983269e-06,0,0,0
53121,0.3711132561,0.09,0.00065,1.68983269e-06,0,0,0
53122,0.3724131274,0.09,0.00065,1.68983269e-06,0,0,0
53123,0.3737129987,0.09,0.00065,1.68983269e-06,0,0,0
53124,0.3750128701,0.09,0.00065,1.68983269e-06,0,0,0
53125,0.3763127413,0.09,0.00065,1.68983269e-06,0,0,0
53126,0.3776126126,0.09,0.00065,1.68983269e-06,0,0,0
53127,0.3789124839,0.09,0.00065,1.68983269e-06,0,0,0
53128,0.3802123553,0.09,0.00065,1.68983269e-06,0,0,0
53129,0.3815122265,0.09,0.00065,1.68983269e-06,0,0,0
53130,0.3828120978,0.09,0.00065,1.68983269e-06,0,0,0
53131,0.3841119692,0.09,0.00065,1.68983269e-06,0,0,0
53132,0.3854118404,0.09,0.00065,1.68983269e-06,0,0,0
53133,0.3867117118,0.09,0.00065,1.68983269e-06,0,0,0
53134,0.388011583,0.09,0.00065,1.68983269e-06,0,0,0
53135,0.3893114543,0.09,0.00065,1.68983269e-06,0,0,0
53136,0.3906113256,0.09,0.00065,1.68983269e-06,0,0,0
53137,0.3919111969,0.09,0.00065,1.68983269e-06,0,0,0
53138,0.3932110683,0.09,0.00065,1.68983269e-06,0,0,0
53139,0.3945109395,0.09,0.00065,1.68983269e-06,0,0,0
53140,0.3958108108,0.09,0.00065,1.68983269e-06,0,0,0
53141,0.3971106822,0.09,0.00065,1.68983269e-06,0,0,0
53142,0.3984105534,0.09,0.00065,1.68983269e-06,0,0,0
53143,0.3997104248,0.09,0.00065,1.68983269e-06,0,0,0
53144,0.4010102961,0.09,0.00065,1.68983269e-06,0,0,0
53145,0.4023101674,0.09,0.00065,1.68983269e-06,0,0,0
53146,0.4036100386,0.09,0.00065,1.68983269e-06,0,0,0
53147,0.4049099099,0.09,0.00065,1.68983269e-06,0,0,0
53148,0.4062097812,0.09,0.00065,1.68983269e-06,0,0,0
53149,0.4075096525,0.09,0.00065,1.68983269e-06,0,0,0
53150,0.4088095238,0.09,0.00065,1.68983269e-06,0,0,0
53151,0.4101093951,0.09,0.00065,1.68983269e-06,0,0,0
53152,0.4114092664,0.09,0.00065,1.68983269e-06,0,0,0
53153,0.4127091377,0.09,0.00065,1.68983269e-06,0,0,0
53154,0.414009009,0.09,0.00065,1.68983269e-06,0,0,0
53155,0.4153088803,0.09,0.00065,1.68983269e-06,0,0,0
53156,0.4166087516,0.09,0.00065,1.68983269e-06,0,0,0
53157,0.4179086229,0.09,0.00065,1.68983269e-06,0,0,0
53158,0.4192084942,0.09,0.00065,1.68983269e-06,0,0,0
53159,0.4205083655,0.09,0.00065,1.68983269e-06,0,0,0
53160,0.4218082368,0.09,0.00065,1.68983269e-06,0,0,0
53161,0.4231081081,0.09,0.00065,1.68983269e-06,0,0,0
53162,0.4244079795,0.09,0.00065,1.68983269e-06,0,0,0
53163,0.4257078508,0.09,0.00065,1.68983269e-06,0,0,0
53164,0.4270077221,0.09,0.00065,1.68983269e-06,0,0,0
53165,0.4283075934,0.09,0.00065,1.68983269e-06,0,0,0
53166,0.4296074646,0.09,0.00065,1.68983269e-06,0,0,0
53167,0.430907336,0.09,0.00065,1.68983269e-06,0,0,0
53168,0.4322072072,0.09,0.00065,1.68983269e-06,0,0,0
53169,0.4335070786,0.09,0.00065,1.68983269e-06,0,0,0
53170,0.4348069498,0.09,0.00065,1.68983269e-06,0,0,0
53171,0.4361068211,0.09,0.00065,1.68983269e-06,0,0,0
53172,0.4374066924,0.09,0.00065,1.68983269e-06,0,0,0
53173,0.4387065638,0.09,0.00065,1.68983269e-06,0,0,0
53174,0.4400064351,0.09,0.00065,1.68983269e-06,0,0,0
53175,0.4413063064,0.09,0.00065,1.68983269e-06,0,0,0
53176,0.4426061776,0.09,0.00065,1.68983269e-06,0,0,0
53177,0.443906049,0.09,0.00065,1.68983269e-06,0,0,0
53178,0.4452059202,0.09,0.00065,1.68983269e-06,0,0,0
53179,0.4465057916,0.09,0.00065,1.68983269e-06,0,0,0
53180,0.4478056629,0.09,0.00065,1.68983269e-06,0,0,0
53181,0.4491055341,0.09,0.00065,1.68983269e-06,0,0,0
53182,0.4504054054,0.09,0.00065,1.68983269e-06,0,0,0
53183,0.4517052767,0.09,0.00065,1.68983269e-06,0,0,0
53184,0.4530051481,0.09,0.00065,1.68983269e-06,0,0,0
53185,0.4543050193,0.09,0.00065,1.68983269e-06,0,0,0
53186,0.4556048906,0.09,0.00065,1.68983269e-06,0,0,0
53187,0.4569047619,0.09,0.00065,1.68983269e-06,0,0,0
53188,0.4582046332,0.09,0.00065,1.68983269e-06,0,0,0
53189,0.4595045046,0.09,0.00065,1.68983269e-06,0,0,0
53190,0.4608043759,0.09,0.00065,1.68983269e-06,0,0,0
53191,0.4621042471,0.09,0.00065,1.68983269e-06,0,0,0
53192,0.4634041185,0.09,0.00065,1.68983269e-06,0,0,0
53193,0.4647039897,0.09,0.00065,1.68983269e-06,0,0,0
53194,0.466003861,0.09,0.00065,1.68983269e-06,0,0,0
53195,0.4673037323,0.09,0.00065,1.68983269e-06,0,0,0
53196,0.4686036036,0.09,0.00065,1.68983269e-06,0,0,0
53197,0.469903475,0.09,0.00065,1.68983269e-06,0,0,0
53198,0.4712033462,0.09,0.00065,1.68983269e-06,0,0,0
53199,0.4725032175,0.09,0.00065,1.68983269e-06,0,0,0
53200,0.4738030888,0.09,0.00065,1.68983269e-06,0,0,0
53201,0.4751029602,0.09,0.00065,1.68983269e-06,0,0,0
53202,0.4764028315,0.09,0.00065,1.68983269e-06,0,0,0
53203,0.4777027027,0.09,0.00065,1.68983269e-06,0,0,0
53204,0.4790025741,0.09,0.00065,1.68983269e-06,0,0,0
53205,0.4803024453,0.09,0.00065,1.68983269e-06,0,0,0
53206,0.4816023167,0.09,0.00065,1.68983269e-06,0,0,0
53207,0.482902188,0.09,0.00065,1.68983269e-06,0,0,0
53208,0.4842020592,0.09,0.00065,1.68983269e-06,0,0,0
53209,0.4855019306,0.09,0.00065,1.68983269e-06,0,0,0
53210,0.4868018018,0.09,0.00065,1.68983269e-06,0,0,0
53211,0.4881016732,0.09,0.00065,1.68983269e-06,0,0,0
53212,0.4894015445,0.09,0.00065,1.68983269e-06,0,0,0
53213,0.4907014157,0.09,0.00065,1.68983269e-06,0,0,0
53214,0.4920012871,0.09,0.00065,1.68983269e-06,0,0,0
53215,0.4933011583,0.09,0.00065,1.68983269e-06,0,0,0
53216,0.4946010296,0.09,0.00065,1.68983269e-06,0,0,0
53217,0.4959009009,0.09,0.00065,1.68983269e-06,0,0,0
53218,0.4972007723,0.09,0.00065,1.68983269e-06,0,0,0
53219,0.4985006436,0.09,0.00065,1.68983269e-06,0,0,0
53220,0.4998005148,0.09,0.00065,1.68983269e-06,0,0,0
53221,0.5011003862,0.09,0.00065,1.68983269e-06,0,0,0
53222,0.5024002574,0.09,0.00065,1.68983269e-06,0,0,0
53223,0.5037001287,0.09,0.00065,1.68983269e-06,0,0,0
53224,0.505,0.09,0.00065,1.68983256e-06,0,0,0
53225,0.5062998713,0.09,0.00065,1.68983269e-06,0,0,0
53226,0.5075997426,0.09,0.00065,1.68983269e-06,0,0,0
53227,0.5088996138,0.09,0.00065,1.68983269e-06,0,0,0
53228,0.5101994851,0.09,0.00065,1.68983269e-06,0,0,0
53229,0.5114993564,0.09,0.00065,1.68983269e-06,0,0,0
53230,0.5127992278,0.09,0.00065,1.68983269e-06,0,0,0
53231,0.5140990991,0.09,0.00065,1.68983269e-06,0,0,0
53232,0.5153989703,0.09,0.00065,1.68983269e-06,0,0,0
53233,0.5166988417,0.09,0.00065,1.68983269e-06,0,0,0
53234,0.5179987129,0.09,0.00065,1.68983269e-06,0,0,0
53235,0.5192985842,0.09,0.00065,1.68983269e-06,0,0,0
53236,0.5205984556,0.09,0.00065,1.68983269e-06,0,0,0
53237,0.5218983268,0.09,0.00065,1.68983269e-06,0,0,0
53238,0.5231981982,0.09,0.00065,1.68983269e-06,0,0,0
53239,0.5244980694,0.09,0.00065,1.68983269e-06,0,0,0
53240,0.5257979407,0.09,0.00065,1.68983269e-06,0,0,0
53241,0.527097812,0.09,0.00065,1.68983269e-06,0,0,0
53242,0.5283976833,0.09,0.00065,1.68983269e-06,0,0,0
53243,0.5296975547,0.09,0.00065,1.68983269e-06,0,0,0
53244,0.5309974259,0.09,0.00065,1.68983269e-06,0,0,0
53245,0.5322972972,0.09,0.00065,1.68983269e-06,0,0,0
53246,0.5335971686,0.09,0.00065,1.68983269e-06,0,0,0
53247,0.5348970398,0.09,0.00065,1.68983269e-06,0,0,0
53248,0.5361969112,0.09,0.00065,1.68983269e-06,0,0,0
53249,0.5374967825,0.09,0.00065,1.68983269e-06,0,0,0
53250,0.5387966537,0.09,0.00065,1.68983269e-06,0,0,0
53251,0.540096525,0.09,0.00065,1.68983269e-06,0,0,0
53252,0.5413963963,0.09,0.00065,1.68983269e-06,0,0,0
53253,0.5426962677,0.09,0.00065,1.68983269e-06,0,0,0
53254,0.5439961389,0.09,0.00065,1.68983269e-06,0,0,0
53255,0.5452960102,0.09,0.00065,1.68983269e-06,0,0,0
53256,0.5465958816,0.09,0.00065,1.68983269e-06,0,0,0
53257,0.5478957528,0.09,0.00065,1.68983269e-06,0,0,0
53258,0.5491956242,0.09,0.00065,1.68983269e-06,0,0,0
53259,0.5504954954,0.09,0.00065,1.68983269e-06,0,0,0
53260,0.5517953667,0.09,0.00065,1.68983269e-06,0,0,0
53261,0.553095238,0.09,0.00065,1.68983269e-06,0,0,0
53262,0.5543951093,0.09,0.00065,1.68983269e-06,0,0,0
53263,0.5556949807,0.09,0.00065,1.68983269e-06,0,0,0
53264,0.556994852,0.09,0.00065,1.68983269e-06,0,0,0
53265,0.5582947232,0.09,0.00065,1.68983269e-06,0,0,0
53266,0.5595945946,0.09,0.00065,1.68983269e-06,0,0,0
53267,0.5608944658,0.09,0.00065,1.68983269e-06,0,0,0
53268,0.5621943372,0.09,0.00065,1.68983269e-06,0,0,0
53269,0.5634942084,0.09,0.00065,1.68983269e-06,0,0,0
53270,0.5647940797,0.09,0.00065,1.68983269e-06,0,0,0
53271,0.5660939511,0.09,0.00065,1.68983269e-06,0,0,0
53272,0.5673938223,0.09,0.00065,1.68983269e-06,0,0,0
53273,0.5686936936,0.09,0.00065,1.68983269e-06,0,0,0
53274,0.569993565,0.09,0.00065,1.68983269e-06,0,0,0
53275,0.5712934362,0.09,0.00065,1.68983269e-06,0,0,0
53276,0.5725933075,0.09,0.00065,1.68983269e-06,0,0,0
53277,0.5738931788,0.09,0.00065,1.68983269e-06,0,0,0
53278,0.5751930501,0.09,0.00065,1.68983269e-06,0,0,0
53279,0.5764929214,0.09,0.00065,1.68983269e-06,0,0,0
53280,0.5777927927,0.09,0.00065,1.68983269e-06,0,0,0
53281,0.5790926641,0.09,0.00065,1.68983269e-06,0,0,0
53282,0.5803925353,0.09,0.00065,1.68983269e-06,0,0,0
53283,0.5816924066,0.09,0.00065,1.68983269e-06,0,0,0
53284,0.5829922779,0.09,0.00065,1.68983269e-06,0,0,0
53285,0.5842921492,0.09,0.00065,1.68983269e-06,0,0,0
53286,0.5855920205,0.09,0.00065,1.68983269e-06,0,0,0
53287,0.5868918918,0.09,0.00065,1.68983269e-06,0,0,0
53288,0.5881917631,0.09,0.00065,1.68983269e-06,0,0,0
53289,0.5894916344,0.09,0.00065,1.68983269e-06,0,0,0
53290,0.5907915057,0.09,0.00065,1.68983269e-06,0,0,0
53291,0.5920913771,0.09,0.00065,1.68983269e-06,0,0,0
53292,0.5933912484,0.09,0.00065,1.68983269e-06,0,0,0
53293,0.5946911196,0.09,0.00065,1.68983269e-06,0,0,0
53294,0.5959909909,0.09,0.00065,1.68983269e-06,0,0,0
53295,0.5972908622,0.09,0.00065,1.68983269e-06,0,0,0
53296,0.5985907336,0.09,0.00065,1.68983269e-06,0,0,0
53297,0.5998906049,0.09,0.00065,1.68983269e-06,0,0,0
53298,0.6011904761,0.09,0.00065,1.68983269e-06,0,0,0
53299,0.6024903475,0.09,0.00065,1.68983269e-06,0,0,0
53300,0.6037902187,0.09,0.00065,1.68983269e-06,0,0,0
53301,0.60509009,0.09,0.00065,1.68983269e-06,0,0,0
53302,0.6063899613,0.09,0.00065,1.68983269e-06,0,0,0
53303,0.6076898326,0.09,0.00065,1.68983269e-06,0,0,0
53304,0.6089897039,0.09,0.00065,1.68983269e-06,0,0,0
53305,0.6102895752,0.09,0.00065,1.68983269e-06,0,0,0
53306,0.6115894465,0.09,0.00065,1.68983269e-06,0,0,0
53307,0.6128893178,0.09,0.00065,1.68983269e-06,0,0,0
53308,0.6141891891,0.09,0.00065,1.68983269e-06,0,0,0
53309,0.6154890604,0.09,0.00065,1.68983269e-06,0,0,0
53310,0.6167889317,0.09,0.00065,1.68983269e-06,0,0,0
53311,0.618088803,0.09,0.00065,1.68983269e-06,0,0,0
53312,0.6193886743,0.09,0.00065,1.68983269e-06,0,0,0
53313,0.6206885456,0.09,0.00065,1.68983269e-06,0,0,0
53314,0.621988417,0.09,0.00065,1.68983269e-06,0,0,0
53315,0.6232882882,0.09,0.00065,1.68983269e-06,0,0,0
53316,0.6245881595,0.09,0.00065,1.68983269e-06,0,0,0
53317,0.6258880308,0.09,0.00065,1.68983269e-06,0,0,0
53318,0.6271879021,0.09,0.00065,1.68983269e-06,0,0,0
53319,0.6284877734,0.09,0.00065,1.68983269e-06,0,0,0
53320,0.6297876447,0.09,0.00065,1.68983269e-06,0,0,0
53321,0.631087516,0.09,0.00065,1.68983269e-06,0,0,0
53322,0.6323873873,0.09,0.00065,1.68983269e-06,0,0,0
53323,0.6336872586,0.09,0.00065,1.68983269e-06,0,0,0
53324,0.6349871299,0.09,0.00065,1.68983269e-06,0,0,0
53325,0.6362870012,0.09,0.00065,1.68983269e-06,0,0,0
53326,0.6375868726,0.09,0.00065,1.68983269e-06,0,0,0
53327,0.6388867438,0.09,0.00065,1.68983269e-06,0,0,0
53328,0.6401866151,0.09,0.00065,1.68983269e-06,0,0,0
53329,0.6414864865,0.09,0.00065,1.68983269e-06,0,0,0
53330,0.6427863578,0.09,0.00065,1.68983269e-06,0,0,0
53331,0.6440862291,0.09,0.00065,1.68983269e-06,0,0,0
53332,0.6453861003,0.09,0.00065,1.68983269e-06,0,0,0
53333,0.6466859716,0.09,0.00065,1.68983269e-06,0,0,0
53334,0.647985843,0.09,0.00065,1.68983269e-06,0,0,0
53335,0.6492857142,0.09,0.00065,1.68983269e-06,0,0,0
53336,0.6505855855,0.09,0.00065,1.68983269e-06,0,0,0
53337,0.6518854568,0.09,0.00065,1.68983269e-06,0,0,0
53338,0.6531853281,0.09,0.00065,1.68983269e-06,0,0,0
53339,0.6544851994,0.09,0.00065,1.68983269e-06,0,0,0
53340,0.6557850707,0.09,0.00065,1.68983269e-06,0,0,0
53341,0.657084942,0.09,0.00065,1.68983269e-06,0,0,0
53342,0.6583848133,0.09,0.00065,1.68983269e-06,0,0,0
53343,0.6596846846,0.09,0.00065,1.68983269e-06,0,0,0
53344,0.660984556,0.09,0.00065,1.68983269e-06,0,0,0
53345,0.6622844272,0.09,0.00065,1.68983269e-06,0,0,0
53346,0.6635842985,0.09,0.00065,1.68983269e-06,0,0,0
53347,0.6648841698,0.09,0.00065,1.68983269e-06,0,0,0
53348,0.6661840411,0.09,0.00065,1.68983269e-06,0,0,0
53349,0.6674839124,0.09,0.00065,1.68983269e-06,0,0,0
53350,0.6687837837,0.09,0.00065,1.68983269e-06,0,0,0
53351,0.670083655,0.09,0.00065,1.68983269e-06,0,0,0
53352,0.6713835264,0.09,0.00065,1.68983269e-06,0,0,0
53353,0.6726833976,0.09,0.00065,1.68983269e-06,0,0,0
53354,0.6739832689,0.09,0.00065,1.68983269e-06,0,0,0
53355,0.6752831402,0.09,0.00065,1.68983269e-06,0,0,0
53356,0.6765830116,0.09,0.00065,1.68983269e-06,0,0,0
53357,0.6778828828,0.09,0.00065,1.68983269e-06,0,0,0
53358,0.6791827541,0.09,0.00065,1.68983269e-06,0,0,0
53359,0.6804826254,0.09,0.00065,1.68983269e-06,0,0,0
53360,0.6817824967,0.09,0.00065,1.68983269e-06,0,0,0
53361,0.683082368,0.09,0.00065,1.68983269e-06,0,0,0
53362,0.6843822393,0.09,0.00065,1.68983269e-06,0,0,0
53363,0.6856821107,0.09,0.00065,1.68983269e-06,0,0,0
53364,0.6869819819,0.09,0.00065,1.68983269e-06,0,0,0
53365,0.6882818532,0.09,0.00065,1.68983269e-06,0,0,0
53366,0.6895817245,0.09,0.00065,1.68983269e-06,0,0,0
53367,0.6908815959,0.09,0.00065,1.68983269e-06,0,0,0
53368,0.6921814671,0.09,0.00065,1.68983269e-06,0,0,0
53369,0.6934813385,0.09,0.00065,1.68983269e-06,0,0,0
53370,0.6947812097,0.09,0.00065,1.68983269e-06,0,0,0
53371,0.696081081,0.09,0.00065,1.68983269e-06,0,0,0
53372,0.6973809523,0.09,0.00065,1.68983269e-06,0,0,0
53373,0.6986808236,0.09,0.00065,1.68983269e-06,0,0,0
53374,0.6999806949,0.09,0.00065,1.68983269e-06,0,0,0
53375,0.7012805662,0.09,0.00065,1.68983269e-06,0,0,0
53376,0.7025804375,0.09,0.00065,1.68983269e-06,0,0,0
53377,0.7038803089,0.09,0.00065,1.68983269e-06,0,0,0
53378,0.7051801801,0.09,0.00065,1.68983269e-06,0,0,0
53379,0.7064800515,0.09,0.00065,1.68983269e-06,0,0,0
53380,0.7077799227,0.09,0.00065,1.68983269e-06,0,0,0
53381,0.709079794,0.09,0.00065,1.68983269e-06,0,0,0
53382,0.7103796654,0.09,0.00065,1.68983269e-06,0,0,0
53383,0.7116795366,0.09,0.00065,1.68983269e-06,0,0,0
53384,0.7129794079,0.09,0.00065,1.68983269e-06,0,0,0
53385,0.7142792793,0.09,0.00065,1.68983269e-06,0,0,0
53386,0.7155791505,0.09,0.00065,1.68983269e-06,0,0,0
53387,0.7168790219,0.09,0.00065,1.68983269e-06,0,0,0
53388,0.7181788931,0.09,0.00065,1.68983269e-06,0,0,0
53389,0.7194787644,0.09,0.00065,1.68983269e-06,0,0,0
53390,0.7207786358,0.09,0.00065,1.68983269e-06,0,0,0
53391,0.722078507,0.09,0.00065,1.68983269e-06,0,0,0
53392,0.7233783783,0.09,0.00065,1.68983269e-06,0,0,0
53393,0.7246782496,0.09,0.00065,1.68983269e-06,0,0,0
53394,0.725978121,0.09,0.00065,1.68983269e-06,0,0,0
53395,0.7272779923,0.09,0.00065,1.68983269e-06,0,0,0
53396,0.7285778635,0.09,0.00065,1.68983269e-06,0,0,0
53397,0.7298777349,0.09,0.00065,1.68983269e-06,0,0,0
53398,0.7311776062,0.09,0.00065,1.68983269e-06,0,0,0
53399,0.7324774774,0.09,0.00065,1.68983269e-06,0,0,0
53400,0.7337773488,0.09,0.00065,1.68983269e-06,0,0,0