/*--------------------------------*- C++ -*----------------------------------*\
| =========                 |                                                 |
| \\      /  F ield         | OpenFOAM: The Open Source CFD Toolbox           |
|  \\    /   O peration     | Version:  2312                                  |
|   \\  /    A nd           | Website:  www.openfoam.com                      |
|    \\/     M anipulation  |                                                 |
\*---------------------------------------------------------------------------*/
FoamFile
{
    version     2.0;
    format      ascii;
    arch        "LSB;label=32;scalar=64";
    class       volScalarField;
    location    "351";
    object      epsilon;
}
// * * * * * * * * * * * * * * * * * * * * * * * * * * * * * * * * * * * * * //

dimensions      [0 2 -3 0 0 0 0];

internalField   nonuniform List<scalar> 
63546
(
0.4321648991
0.488119137
0.5494087034
0.6164751806
0.6897379442
0.7696061641
0.8564795531
0.9507474284
1.052786513
1.162957571
1.28160138
1.409034398
1.545544324
1.691385669
1.846775364
2.01188857
2.186854745
2.371754082
2.566614377
2.771408399
2.986051855
3.210401961
3.444256704
3.687354813
3.939376436
4.199944552
4.468627052
4.744939504
5.028348537
5.31827579
5.614102389
5.915173834
6.22080526
6.530286936
6.842889948
7.15787198
7.474483071
7.791971328
8.109588447
8.426595039
8.742265656
9.055893475
9.366794618
9.67431202
9.977818886
10.27672165
10.57046249
10.85852136
11.14041758
11.41571095
11.68400252
11.9449348
12.19819179
12.44349847
12.68062017
12.90936152
13.12956521
13.34111054
13.54391181
13.73791655
13.92310363
14.09948132
14.26708527
14.42597648
14.57623924
14.71797911
14.8513209
14.97640675
15.09339418
15.20245429
15.30377
15.39753438
15.48394908
15.56322276
15.63556983
15.70120904
15.76036234
15.81325374
15.86010832
15.90115129
15.93660717
15.96669901
15.99164776
16.01167162
16.02698557
16.03780091
16.04432483
16.04676011
16.04530484
16.04015216
16.03149011
16.01950146
16.00436364
15.98624865
15.96532302
15.94174785
15.91567876
15.88726598
15.85665446
15.82398393
15.78938883
15.75299835
15.71493659
15.67532262
15.63426807
15.59187814
15.54825401
15.50349251
15.45768629
15.41092406
15.36329066
15.31486724
15.26573127
15.21595675
15.16561424
15.11477106
15.06349133
15.01183613
14.95986359
14.90762906
14.85518515
14.8025819
14.74986683
14.69708512
14.64427966
14.59149114
14.53875821
14.48611752
14.43360382
14.38125006
14.32908747
14.27714566
14.22545266
14.17403501
14.12291785
14.072125
14.02167895
13.97160102
13.92191135
13.87262898
13.82377191
13.77535713
13.72740071
13.67991777
13.63292261
13.58642869
13.54044868
13.4949945
13.45007737
13.4057078
13.36189567
13.31865019
13.27598002
13.23389319
13.19239716
13.15149882
13.11120457
13.07152026
13.03245124
12.99400238
12.95617807
12.91898222
12.8824183
12.84648933
12.81119788
12.77654608
12.74253565
12.70916787
12.6764436
12.64436331
12.61292701
12.58213432
12.55198445
12.52247618
12.49360786
12.46537743
12.43778246
12.41082023
12.38448779
12.35878176
12.33369832
12.30923322
12.28538179
12.26213901
12.23949943
12.21745727
12.19600633
12.17514008
12.1548516
12.13513364
12.11597859
12.09737852
12.07932517
12.06180998
12.04482407
12.02835829
12.01240321
11.99694911
11.98198607
11.9675039
11.95349221
11.9399404
11.9268377
11.91417318
11.90193573
11.89011414
11.87869709
11.86767316
11.85703086
11.84675866
11.83684497
11.82727822
11.81804682
11.80913923
11.80054394
11.7922495
11.78424456
11.77651784
11.7690582
11.76185463
11.75489627
11.74817243
11.7416726
11.73538643
11.72930383
11.72341487
11.71770987
11.71217941
11.70681428
11.70160555
11.69654455
11.69162288
11.68683242
11.68216532
11.67761402
11.67317125
11.66883003
11.66458364
11.66042567
11.65634999
11.65235071
11.64842226
11.6445593
11.64075683
11.63701019
11.63331503
11.62966725
11.62606304
11.62249877
11.61897108
11.61547682
11.61201306
11.6085771
11.60516641
11.60177867
11.59841175
11.59506368
11.59173267
11.58841708
11.58511544
11.58182639
11.57854872
11.57528133
11.57202322
11.56877354
11.56553149
11.56229638
11.5590676
11.55584461
11.55262694
11.54941417
11.54620595
11.54300195
11.53980191
11.53660559
11.53341278
11.5302233
11.527037
11.52385371
11.52067332
11.51749571
11.51432075
11.51114834
11.50797837
11.50481074
11.50164534
11.49848205
11.49532075
11.49216132
11.48900363
11.48584752
11.48269285
11.47953945
11.47638715
11.47323576
11.47008507
11.46693488
11.46378497
11.4606351
11.45748505
11.45433463
11.45118366
11.44803199
11.44487943
11.4417258
11.43857091
11.43541457
11.43225657
11.42909673
11.42593484
11.42277071
11.41960416
11.41643501
11.41326308
11.4100882
11.40691023
11.403729
11.40054439
11.39735626
11.39416449
11.39096897
11.38776962
11.38456633
11.38135906
11.37814772
11.37493227
11.37171268
11.36848893
11.365261
11.36202889
11.35879262
11.35555221
11.3523077
11.34905913
11.34580656
11.34255006
11.33928969
11.33602555
11.33275773
11.32948632
11.32621144
11.3229332
11.31965171
11.31636711
11.31307952
11.30978908
11.30649594
11.30320023
11.29990213
11.29660181
11.29329946
11.28999525
11.28668939
11.28338204
11.2800734
11.27676366
11.273453
11.2701416
11.26682966
11.26351736
11.26020488
11.2568924
11.2535801
11.25026817
11.24695677
11.2436461
11.24033631
11.23702758
11.23372008
11.23041397
11.22710942
11.22380659
11.22050562
11.21720668
11.21390991
11.21061547
11.20732348
11.2040341
11.20074745
11.19746368
11.19418291
11.19090528
11.1876309
11.18435992
11.18109244
11.1778286
11.17456849
11.17131224
11.16805996
11.16481174
11.16156769
11.15832791
11.1550925
11.15186154
11.14863514
11.14541338
11.14219634
11.13898411
11.13577677
11.13257439
11.12937707
11.12618487
11.12299786
11.11981612
11.11663972
11.11346872
11.11030319
11.1071432
11.1039888
11.10084006
11.09769703
11.09455977
11.09142835
11.0883028
11.0851832
11.08206958
11.078962
11.0758605
11.07276515
11.06967598
11.06659303
11.06351636
11.06044601
11.05738201
11.05432441
11.05127325
11.04822856
11.04519039
11.04215876
11.03913372
11.0361153
11.03310353
11.03009844
11.02710007
11.02410844
11.02112359
11.01814555
11.01517433
11.01220998
11.00925251
11.00630195
11.00335832
11.00042164
10.99749195
10.99456925
10.99165358
10.98874494
10.98584336
10.98294886
10.98006144
10.97718114
10.97430795
10.9714419
10.968583
10.96573126
10.96288669
10.9600493
10.95721911
10.95439611
10.95158033
10.94877177
10.94597043
10.94317632
10.94038946
10.93760983
10.93483746
10.93207234
10.92931447
10.92656386
10.92382051
10.92108443
10.91835561
10.91563406
10.91291978
10.91021276
10.90751301
10.90482053
10.90213531
10.89945735
10.89678664
10.8941232
10.89146701
10.88881807
10.88617637
10.88354191
10.88091469
10.8782947
10.87568194
10.87307639
10.87047806
10.86788694
10.86530302
10.8627263
10.86015676
10.8575944
10.85503922
10.8524912
10.84995034
10.84741662
10.84489005
10.84237061
10.83985829
10.83735309
10.83485499
10.832364
10.82988009
10.82740326
10.8249335
10.8224708
10.82001515
10.81756655
10.81512499
10.81269044
10.81026292
10.8078424
10.80542888
10.80302235
10.8006228
10.79823022
10.7958446
10.79346594
10.79109422
10.78872943
10.78637158
10.78402064
10.78167661
10.77933948
10.77700925
10.77468591
10.77236945
10.77005986
10.76775714
10.76546128
10.76317227
10.76089011
10.7586148
10.75634633
10.75408469
10.75182988
10.7495819
10.74734075
10.74510642
10.7428789
10.74065821
10.73844434
10.73623729
10.73403707
10.73184366
10.72965709
10.72747734
10.72530443
10.72313837
10.72097915
10.71882678
10.71668128
10.71454266
10.71241092
10.71028608
10.70816815
10.70605715
10.7039531
10.70185601
10.69976591
10.69768282
10.69560675
10.69353775
10.69147584
10.68942104
10.6873734
10.68533294
10.68329971
10.68127375
10.6792551
10.67724381
10.67523993
10.67324351
10.67125461
10.66927329
10.66729962
10.66533366
10.66337548
10.66142518
10.65948282
10.6575485
10.6556223
10.65370434
10.65179471
10.64989352
10.6480009
10.64611697
10.64424185
10.64237569
10.64051863
10.63867084
10.63683246
10.63500368
10.63318468
10.63137566
10.62957681
10.62778835
10.62601051
10.62424353
10.62248766
10.62074316
10.61901033
10.61728944
10.61558083
10.61388481
10.61220173
10.61053196
10.60887588
10.6072339
10.60560644
10.60399396
10.60239692
10.60081583
10.59925121
10.59770362
10.59617364
10.59466188
10.59316899
10.59169565
10.59024259
10.58881055
10.58740033
10.58601277
10.58464875
10.58330921
10.58199512
10.5807075
10.57944746
10.57821612
10.5770147
10.57584447
10.57470675
10.57360297
10.57253461
10.57150324
10.57051051
10.56955816
10.56864804
10.5677821
10.56696246
10.56619136
10.56547017
10.56480088
10.56418639
10.56362947
10.56313291
10.56269967
10.56233278
10.56203541
10.56181087
10.5616626
10.5615942
10.56160945
10.56171234
10.56190706
10.56219801
10.56258984
10.56308747
10.56369609
10.56442119
10.56526859
10.56624444
10.56735528
10.56860803
10.57001002
10.57156905
10.57329337
10.57519176
10.57727353
10.57954857
10.58202741
10.58472123
10.58764194
10.5908022
10.59421552
10.5978963
10.60185988
10.60612266
10.61070217
10.61561713
10.6208876
10.62653508
10.63258261
10.63905494
10.6459787
10.65338252
10.6612973
10.66975638
10.67879582
10.68845466
10.69877528
10.70980375
10.72159025
10.73418959
10.74766174
10.76207254
10.77749444
10.79400741
10.81170005
10.83067083
10.85102965
10.87289962
10.89641924
10.92174496
10.94905404
10.97854765
11.01045334
11.0450252
11.08253362
11.12324204
11.16916758
0.01660058007
0.0243457441
0.03113843861
0.03751625197
0.04374887478
0.04999419287
0.05635806274
0.06291903974
0.06973947413
0.07687195539
0.08436267617
0.09225374635
0.1005844241
0.1093917647
0.1187109747
0.1285755701
0.1390174152
0.1500665937
0.1617512033
0.1740970995
0.1871276579
0.2008633738
0.2153214073
0.2305152962
0.2464546675
0.2631449447
0.2805872811
0.2987780562
0.3177088498
0.3373663104
0.3577321909
0.3787835284
0.40049272
0.4228278244
0.445752861
0.4692281451
0.4932106821
0.5176546557
0.5425119132
0.5677324554
0.5932649428
0.6190572138
0.6450567969
0.6712114062
0.6974694296
0.7237803736
0.7500951807
0.776366528
0.8025491423
0.8286001128
0.8544791108
0.8801485354
0.9055736288
0.9307226016
0.9555667148
0.9800803088
1.004240799
1.028028649
1.051427331
1.074423258
1.097005707
1.119166731
1.140901054
1.16220596
1.183081182
1.203528776
1.223552994
1.243160162
1.262358549
1.281158272
1.299571192
1.317610798
1.335292075
1.352631377
1.36964634
1.386355774
1.402779583
1.418938671
1.434854877
1.450550901
1.466050237
1.481377078
1.496556254
1.511613182
1.526573849
1.541464772
1.556312965
1.571145908
1.585991524
1.600878161
1.615834581
1.630889957
1.646073868
1.661416297
1.676947639
1.692698709
1.708700739
1.724985349
1.741584667
1.758531738
1.775860672
1.793606658
1.811806265
1.830491426
1.849222248
1.867650582
1.885820157
1.90376994
1.921535673
1.939150182
1.956643637
1.974043827
1.991376408
2.008665102
2.025931871
2.043197067
2.060479571
2.077796897
2.095165314
2.112599943
2.130114855
2.147723144
2.165436993
2.183267734
2.201225906
2.219321297
2.23756299
2.255959394
2.274518286
2.293246832
2.312151616
2.331238657
2.350513437
2.369980909
2.389645519
2.409511206
2.429581429
2.449859162
2.470346908
2.491046708
2.511960134
2.533088308
2.554431895
2.57599111
2.597765716
2.61975503
2.64195792
2.66437281
2.68699767
2.709830028
2.73286696
2.756105093
2.779540635
2.803169428
2.82698686
2.850987831
2.8751668
2.899517838
2.92403459
2.948710276
2.973537702
2.998509274
3.023616998
3.048852491
3.074206988
3.099671364
3.125236143
3.150891514
3.176627345
3.202433198
3.228298365
3.254211885
3.28016259
3.306139144
3.332130096
3.358123813
3.384107808
3.410068689
3.435993314
3.461868771
3.487681992
3.51341978
3.539068854
3.56461588
3.590047503
3.615350376
3.640511205
3.665516779
3.690354001
3.715009899
3.739471632
3.763726544
3.787762199
3.811566409
3.835127246
3.858433083
3.881472613
3.904234874
3.926709271
3.9488856
3.970754072
3.99230533
4.013530464
4.034421039
4.054969103
4.075167203
4.095008391
4.114486246
4.133594877
4.152328932
4.170683601
4.188654629
4.206238311
4.223431495
4.240231581
4.256636519
4.272644806
4.28825548
4.303468106
4.31828277
4.332700062
4.346721085
4.360347457
4.37358128
4.3864251
4.398881903
4.410955107
4.42264854
4.433966421
4.444913342
4.455494247
4.465714417
4.475579448
4.485095228
4.494267921
4.50310394
4.511609939
4.519792783
4.527659537
4.535217422
4.542473754
4.54943574
4.556110344
4.562504694
4.568626513
4.57448381
4.580084457
4.585436162
4.590546547
4.595423156
4.600073447
4.604504782
4.608724413
4.612739481
4.616557002
4.620183855
4.623626782
4.62689237
4.629987049
4.632917092
4.63568861
4.638307541
4.640779642
4.643110491
4.645305486
4.64736984
4.649308585
4.651126567
4.652828451
4.654418718
4.655901669
4.657281428
4.658561943
4.65974699
4.660840175
4.661844941
4.662764569
4.66360218
4.664360746
4.665043087
4.66565188
4.666189666
4.666658859
4.667061749
4.667400509
4.667677198
4.667893765
4.668052055
4.668153819
4.668200715
4.668194319
4.668136127
4.668027561
4.667869978
4.667664668
4.667412855
4.667115692
4.666774239
4.666389437
4.665962196
4.66549352
4.664984459
4.66443598
4.663848964
4.663224253
4.662562669
4.661865015
4.661132075
4.660364616
4.65956339
4.658729137
4.657862585
4.656964449
4.656035436
4.655076244
4.654087564
4.65307008
4.652024471
4.650951408
4.64985156
4.648725589
4.647574153
4.646397905
4.645197494
4.643973562
4.642726743
4.641457671
4.640166982
4.638855305
4.637523268
4.636171494
4.6348006
4.633411199
4.632003899
4.630579301
4.629137999
4.627680584
4.626207636
4.624719731
4.623217435
4.62170131
4.62017191
4.618629778
4.617075449
4.615509438
4.613932235
4.612344306
4.6107461
4.609138077
4.607520717
4.605894502
4.604259902
4.602617374
4.600967364
4.599310309
4.597646631
4.595976741
4.594301038
4.592619908
4.590933724
4.589242849
4.587547634
4.58584842
4.584145538
4.582439308
4.58073004
4.579018035
4.577303582
4.575586963
4.573868448
4.572148299
4.570426769
4.568704104
4.566980537
4.565256297
4.563531602
4.561806662
4.560081675
4.558356832
4.556632313
4.554908297
4.553184955
4.551462459
4.549740976
4.548020664
4.546301678
4.544584162
4.542868255
4.541154089
4.539441792
4.537731487
4.536023292
4.534317321
4.532613686
4.530912492
4.529213839
4.527517825
4.525824544
4.524134084
4.522446532
4.520761971
4.519080482
4.517402142
4.515727029
4.514055214
4.512386767
4.510721755
4.509060244
4.507402294
4.505747965
4.504097316
4.5024504
4.500807272
4.49916798
4.497532575
4.495901104
4.494273612
4.492650142
4.491030737
4.489415437
4.487804283
4.486197309
4.484594554
4.48299605
4.48140183
4.479811925
4.478226364
4.476645174
4.475068382
4.473496014
4.471928092
4.470364641
4.468805682
4.467251236
4.465701321
4.464155956
4.462615159
4.461078944
4.459547328
4.458020324
4.456497945
4.454980202
4.453467107
4.45195867
4.4504549
4.448955805
4.447461395
4.445971675
4.444486651
4.44300633
4.441530714
4.440059807
4.43859361
4.437132124
4.435675349
4.434223286
4.432775934
4.431333292
4.429895358
4.428462132
4.427033609
4.425609787
4.424190661
4.422776227
4.42136648
4.419961414
4.418561021
4.417165297
4.415774234
4.414387827
4.413006067
4.411628947
4.410256459
4.408888595
4.407525347
4.406166703
4.404812656
4.403463195
4.40211831
4.400777991
4.399442228
4.398111008
4.396784322
4.395462157
4.394144502
4.392831346
4.391522677
4.390218482
4.388918751
4.38762347
4.386332628
4.385046211
4.383764208
4.382486606
4.38121339
4.379944549
4.378680068
4.377419935
4.376164134
4.374912652
4.373665476
4.372422591
4.371183983
4.369949638
4.368719542
4.36749368
4.366272039
4.365054605
4.363841362
4.362632296
4.361427394
4.36022664
4.359030021
4.357837522
4.356649128
4.355464825
4.354284599
4.353108434
4.351936316
4.350768229
4.349604158
4.348444089
4.347288007
4.346135896
4.344987743
4.343843532
4.342703249
4.341566878
4.340434405
4.339305815
4.338181093
4.337060224
4.335943193
4.334829985
4.333720585
4.332614977
4.331513146
4.330415076
4.329320753
4.328230162
4.327143287
4.326060115
4.32498063
4.323904818
4.322832664
4.321764152
4.32069927
4.319638
4.318580329
4.317526242
4.316475724
4.315428759
4.314385334
4.313345433
4.31230904
4.311276142
4.310246723
4.309220768
4.308198262
4.307179191
4.306163539
4.305151291
4.304142434
4.303136951
4.302134828
4.301136051
4.300140604
4.299148472
4.29815964
4.297174093
4.296191816
4.295212793
4.29423701
4.293264451
4.2922951
4.291328942
4.290365961
4.289406142
4.288449468
4.287495924
4.286545494
4.285598162
4.284653911
4.283712727
4.282774592
4.281839489
4.280907403
4.279978317
4.279052212
4.278129072
4.27720888
4.276291617
4.275377265
4.274465807
4.273557225
4.272651499
4.271748611
4.270848542
4.269951273
4.269056783
4.268165052
4.267276061
4.266389786
4.265506208
4.264625305
4.263747053
4.262871429
4.261998411
4.261127973
4.260260092
4.259394741
4.258531893
4.257671523
4.256813601
4.2559581
4.255104988
4.254254234
4.253405808
4.252559676
4.251715803
4.250874153
4.250034691
4.249197377
4.248362172
4.247529033
4.246697918
4.24586878
4.245041572
4.244216243
4.243392741
4.242571008
4.241750986
4.240932613
4.24011582
4.239300537
4.238486688
4.237674189
4.236862955
4.236052887
4.235243861
4.234435676
4.233628007
4.232820264
4.232011493
4.231211978
4.230431782
4.229662434
4.228888829
4.228109369
4.227322925
4.226528532
4.225725063
4.224911405
4.224086491
4.223249335
4.222398974
4.221534425
4.220654668
4.219758638
4.218845224
4.217913277
4.216961605
4.215988969
4.214994076
4.213975569
4.212932018
4.211861912
4.210763651
4.209635539
4.208475773
4.207282432
4.206053466
4.204786683
4.203479734
4.202130095
4.200735051
4.199291678
4.197796818
4.196247057
4.194638697
4.192967727
4.191229785
4.189420119
4.187533544
4.185564386
4.183506424
4.181352818
4.179096031
4.176727729
4.174238674
4.171618592
4.168856011
4.165938076
4.16285032
4.159576386
4.156097683
4.152392961
4.148437773
4.144203791
4.139657921
4.134761144
4.129466958
4.123719264
4.117449406
4.110571945
4.102978427
4.094527903
4.085031974
4.074230272
4.061748498
4.047023375
4.02916112
4.006690354
3.974248198
0.008248725738
0.009089835662
0.0100573797
0.01109656515
0.01218117887
0.01329866432
0.01444353182
0.01561410198
0.01681074879
0.01803496887
0.01928883195
0.02057467659
0.02189503154
0.02325246949
0.02464954252
0.02608874844
0.02757250687
0.02910314157
0.03068286565
0.03231376846
0.03399782162
0.03573687276
0.03753258913
0.0393864562
0.0412997792
0.04327366814
0.04530902574
0.04740653791
0.04956666481
0.05178963189
0.05407542175
0.05642376508
0.05883412829
0.06130573507
0.06383756332
0.06642833838
0.06907653505
0.07178039327
0.07453792447
0.07734691758
0.08020494944
0.08310939818
0.08605745794
0.0890461557
0.09207237368
0.09513287624
0.09822430855
0.1013432066
0.1044860117
0.1076491153
0.1108288787
0.1140216402
0.117223727
0.1204314801
0.1236412746
0.126849537
0.1300527596
0.1332475165
0.1364304779
0.1395984244
0.1427482598
0.145877023
0.1489818995
0.1520602305
0.1551095226
0.1581274549
0.1611118851
0.1640608537
0.1669725875
0.1698455082
0.1726782409
0.1754696137
0.1782186565
0.1809245978
0.1835868671
0.1862050924
0.1887790994
0.1913089091
0.1937947367
0.1962369899
0.1986362683
0.2009933503
0.2033091851
0.2055848903
0.207821751
0.2100212171
0.2121848974
0.2143145555
0.2164121044
0.2184796025
0.2205192497
0.2225333837
0.2245244761
0.2264951286
0.2284480699
0.2303861536
0.2323123551
0.23422977
0.2361416181
0.2380512706
0.2399622727
0.241878352
0.2438034636
0.245741212
0.2476921615
0.2496554017
0.2516307084
0.2536180797
0.2556177822
0.2576303378
0.2596565018
0.2616972432
0.2637537272
0.2658272966
0.2679194574
0.2700318635
0.2721663007
0.2743246734
0.2765089961
0.2787213868
0.2809640613
0.2832393257
0.2855495704
0.2878972653
0.2902849562
0.2927152607
0.2951908663
0.2977145271
0.3002890638
0.3029173614
0.3056023701
0.3083471034
0.3111546405
0.3140281262
0.316970772
0.3199858576
0.3230767336
0.3262468229
0.3294996238
0.3328387127
0.3362677466
0.339790468
0.3434107072
0.3471323874
0.3509595273
0.3548962473
0.3589467732
0.3631154411
0.3674067018
0.371825128
0.3763754215
0.3810624199
0.3858911032
0.3908666086
0.3959942257
0.4012794037
0.4067277472
0.4123450118
0.4181371857
0.4241104494
0.4302711868
0.4366259976
0.4431817044
0.449945362
0.4569242671
0.4641259756
0.4715583115
0.4792293801
0.4871475815
0.4953216227
0.5037605371
0.5124737019
0.5214708641
0.530762175
0.5403582603
0.5502702627
0.5605085701
0.5709502332
0.5815232772
0.5922318688
0.6030797618
0.6140704296
0.6252070714
0.6364926073
0.6479296845
0.6595206774
0.6712676957
0.6831725841
0.6952369262
0.7074620412
0.7198489816
0.7323985028
0.7451110984
0.7579869953
0.771026149
0.7842282481
0.797592711
0.8111186877
0.824805056
0.8386504278
0.852653146
0.8668112878
0.8811226619
0.8955848176
0.9101950423
0.9249503652
0.9398475553
0.9548831311
0.9700533605
0.9853542672
1.000781631
1.016330999
1.031997689
1.047776794
1.063663187
1.079651538
1.095736308
1.111911768
1.128172001
1.144510915
1.160922241
1.177399556
1.193936297
1.21052577
1.22716116
1.243835538
1.260541875
1.277273054
1.294021886
1.310781117
1.327543451
1.344301551
1.361048068
1.377775646
1.394476943
1.411144641
1.427771466
1.44435021
1.460873742
1.477335031
1.493727168
1.510043341
1.526276693
1.542420153
1.558466724
1.574409751
1.590242755
1.605959402
1.621553524
1.637019116
1.652350354
1.667541605
1.682587426
1.697482583
1.712222056
1.726801044
1.74121497
1.755459493
1.769530512
1.783424172
1.797136869
1.810665233
1.824006138
1.837156712
1.850114329
1.862876618
1.875441456
1.88780697
1.899971532
1.911933759
1.923692513
1.935246894
1.946596233
1.957740098
1.968678278
1.979410787
1.989937851
2.000259904
2.01037758
2.020291709
2.030003304
2.03951356
2.048823844
2.057935694
2.066850806
2.075571025
2.084098337
2.092434866
2.10058286
2.108544685
2.116322819
2.123919842
2.131338431
2.138581348
2.145651434
2.152551601
2.15928481
2.165854032
2.172262153
2.178512047
2.184606809
2.190549712
2.196344012
2.201992918
2.207499616
2.21286728
2.218099064
2.223198107
2.228167523
2.233010399
2.237729792
2.242328728
2.246810192
2.251177133
2.255432453
2.25957901
2.263619614
2.267557023
2.271393942
2.275133024
2.278776862
2.282327995
2.2857889
2.289161999
2.292449651
2.295654154
2.298777746
2.301822608
2.304790859
2.307684558
2.310505703
2.313256235
2.315938034
2.318552924
2.32110267
2.323588984
2.32601352
2.32837788
2.330683614
2.332932219
2.335125145
2.337263795
2.339349525
2.341383643
2.343367407
2.345302019
2.34718862
2.349028313
2.350822202
2.352571374
2.354276867
2.35593967
2.357560737
2.359140991
2.36068133
2.36218262
2.363645703
2.365071391
2.366460477
2.367813724
2.369131878
2.370415659
2.37166577
2.372882892
2.374067689
2.375220808
2.376342877
2.377434509
2.378496302
2.37952884
2.380532693
2.381508417
2.382456557
2.383377646
2.384272206
2.385140746
2.385983766
2.386801753
2.387595183
2.388364522
2.389110227
2.389832752
2.390532545
2.39121005
2.391865699
2.39249992
2.393113134
2.393705751
2.394278174
2.394830802
2.395364026
2.395878233
2.396373805
2.396851115
2.397310533
2.397752422
2.398177139
2.398585035
2.398976454
2.399351738
2.39971122
2.40005523
2.400384093
2.400698128
2.400997649
2.401282964
2.401554377
2.401812185
2.402056681
2.402288152
2.402506882
2.402713146
2.402907218
2.403089365
2.403259848
2.403418924
2.403566847
2.403703863
2.403830216
2.403946142
2.404051877
2.404147649
2.40423368
2.404310192
2.404377397
2.404435505
2.404484723
2.40452525
2.404557284
2.404581016
2.404596634
2.404604324
2.404604265
2.404596633
2.4045816
2.404559336
2.404530004
2.404493766
2.404450779
2.404401197
2.40434517
2.404282846
2.404214368
2.404139877
2.40405951
2.403973402
2.403881685
2.403784487
2.403681934
2.40357415
2.403461254
2.403343362
2.403220589
2.403093046
2.402960843
2.402824087
2.402682883
2.402537334
2.402387539
2.402233597
2.402075604
2.401913654
2.401747839
2.401578247
2.401404967
2.401228084
2.401047683
2.400863845
2.400676652
2.400486183
2.400292516
2.400095729
2.399895894
2.399693085
2.399487374
2.399278831
2.399067524
2.398853521
2.398636887
2.398417686
2.398195983
2.397971839
2.397745314
2.397516468
2.39728536
2.397052047
2.396816584
2.396579028
2.396339431
2.396097848
2.395854331
2.39560893
2.395361695
2.395112676
2.39486192
2.394609474
2.394355385
2.394099696
2.393842453
2.393583699
2.393323475
2.393061825
2.392798787
2.392534403
2.392268711
2.392001751
2.391733558
2.391464172
2.391193627
2.390921959
2.390649203
2.390375393
2.390100562
2.389824743
2.389547969
2.389270269
2.388991676
2.388712218
2.388431925
2.388150825
2.387868946
2.387586316
2.387302961
2.387018907
2.386734181
2.386448807
2.38616281
2.385876213
2.385589042
2.385301317
2.385013063
2.3847243
2.38443505
2.384145334
2.383855171
2.383564581
2.383273583
2.382982195
2.382690436
2.382398322
2.382105873
2.381813104
2.381520032
2.381226672
2.380933042
2.380639154
2.380345024
2.380050666
2.379756092
2.379461317
2.379166353
2.378871211
2.378575904
2.378280441
2.377984835
2.377689095
2.377393231
2.377097252
2.376801166
2.376504983
2.376208708
2.375912351
2.375615918
2.375319415
2.375022847
2.37472622
2.374429539
2.374132807
2.373836028
2.373539205
2.37324234
2.372945434
2.372648489
2.372351504
2.37205448
2.371757415
2.371460306
2.371163152
2.370865949
2.370568692
2.370271377
2.369973998
2.369676549
2.36937902
2.369081405
2.368783694
2.368485876
2.368187939
2.36788987
2.367591656
2.36729328
2.366994727
2.366695978
2.366397016
2.366097818
2.365798363
2.365498628
2.365198588
2.364898215
2.364597481
2.364296355
2.363994805
2.363692797
2.363390292
2.363087253
2.362783638
2.362479403
2.362174501
2.361868883
2.361562498
2.36125529
2.3609472
2.360638167
2.360328126
2.360017007
2.359704738
2.359391242
2.359076437
2.358760238
2.358442554
2.358123289
2.357802344
2.357479611
2.357154979
2.356828329
2.356499536
2.356168468
2.355834986
2.355498943
2.355160183
2.354818542
2.354473845
2.35412591
2.353774541
2.353419533
2.353060667
2.35269771
2.352330416
2.351958516
2.351581721
2.351199705
2.350812111
2.350418567
2.350018703
2.349612433
2.349199739
2.348780631
2.348367627
2.347959315
2.347548367
2.347128605
2.346699087
2.346259081
2.345807648
2.345343803
2.344866541
2.344374854
2.343867712
2.343344041
2.342802708
2.34224252
2.341662225
2.341060512
2.340436011
2.339787285
2.339112822
2.338411028
2.337680222
2.336918626
2.336124355
2.335295416
2.334429688
2.33352492
2.332578715
2.331588514
2.33055159
2.329465021
2.328325682
2.327130219
2.325875028
2.324556232
2.323169653
2.321710775
2.320174716
2.318556181
2.316849417
2.315048159
2.313145569
2.311134161
2.309005718
2.306751194
2.304360597
2.301822847
2.299125614
2.296255111
2.293195852
2.289930347
2.286438722
2.282698243
2.278682709
2.274361655
2.269699319
2.264653237
2.259172348
2.253194336
2.246641853
2.239417016
2.231393204
2.222402556
2.21221655
2.200515417
2.186839451
2.170512691
2.150393476
0.007753214226
0.007859235791
0.008018421434
0.008222524107
0.008463657026
0.008735164097
0.00903172595
0.0093492177
0.009684498753
0.01003520866
0.01039958855
0.01077634135
0.01116452937
0.01156348621
0.01197275044
0.01239201575
0.0128210924
0.0132598776
0.01370833237
0.0141664635
0.0146343121
0.01511194173
0.01559942542
0.01609683964
0.0166042594
0.01712175302
0.01764937775
0.01818717652
0.01873517524
0.01929338052
0.01986177792
0.02044032974
0.02102896944
0.02162759211
0.02223608536
0.02285430891
0.02348209549
0.02411924798
0.02476554612
0.02542074455
0.02608457235
0.02675673386
0.02743690949
0.02812475661
0.02881991247
0.02952199958
0.03023063211
0.03094539329
0.03166584991
0.03239155544
0.03312205158
0.03385686777
0.0345955244
0.03533753309
0.03608240012
0.03682962766
0.03757871522
0.0383291613
0.03908046487
0.039832127
0.0405836523
0.04133455045
0.0420843376
0.04283253774
0.04357868406
0.04432232011
0.04506300094
0.04580029393
0.04653377835
0.04726304853
0.04798771651
0.04870741168
0.04942178069
0.05013048797
0.05083321678
0.05152966969
0.0522195692
0.05290265808
0.05357870018
0.054247481
0.05490881039
0.05556251849
0.05620845497
0.05684649108
0.05747652026
0.05809845819
0.05871224255
0.059317833
0.05991521069
0.0605043784
0.06108536033
0.06165820211
0.06222297048
0.06277975308
0.06332865813
0.06386981441
0.064403371
0.06492949724
0.065448383
0.06596023986
0.06646530164
0.06696382325
0.06745607697
0.06794233444
0.06842284987
0.06889787718
0.0693676711
0.06983247385
0.07029251707
0.07074802671
0.07119922734
0.07164634382
0.07208960265
0.0725292331
0.07296546905
0.07339855006
0.07382872044
0.07425622945
0.07468133281
0.0751042936
0.07552538283
0.07594487955
0.0763630712
0.07678025363
0.07719673152
0.07761281834
0.07802883658
0.07844511767
0.07886200235
0.07927984058
0.07969899174
0.0801198246
0.08054271766
0.08096805911
0.08139624711
0.08182768978
0.0822628056
0.08270202353
0.08314578322
0.08359453537
0.08404874185
0.08450887621
0.08497542391
0.08544888273
0.08592976297
0.08641858804
0.08691589459
0.08742223268
0.08793816542
0.08846426876
0.08900115213
0.08954944624
0.09010978647
0.09068282739
0.0912692437
0.09186973135
0.09248500703
0.09311583593
0.09376297399
0.09442720326
0.09510933549
0.09581021249
0.0965307074
0.09727172466
0.09803420113
0.09881910904
0.09962745797
0.1004602969
0.1013187166
0.1022038517
0.1031168845
0.1040590475
0.1050316282
0.1060359739
0.1070735
0.1081457
0.1092540152
0.1103990022
0.1115808779
0.1127999697
0.1140566476
0.1153513325
0.1166844965
0.1180566619
0.1194683993
0.1209203276
0.1224131128
0.1239474664
0.1255241447
0.127143949
0.1288077279
0.1305163719
0.1322708128
0.1340720242
0.1359210205
0.1378188573
0.1397666304
0.1417654764
0.143816571
0.1459211309
0.1480804123
0.1502957116
0.1525683652
0.1548997507
0.1572912869
0.1597444342
0.162260694
0.1648416103
0.1674887699
0.1702038035
0.1729883855
0.1758442364
0.1787731226
0.1817768584
0.184857306
0.188016378
0.191256038
0.1945783027
0.1979852413
0.2014789827
0.2050617122
0.2087356714
0.2125031689
0.2163665643
0.2203282961
0.2243908716
0.2285568694
0.2328289417
0.237209819
0.2417023077
0.246309296
0.251033757
0.2558787538
0.2608474417
0.2659430722
0.2711689957
0.2765286683
0.2820256553
0.2876636399
0.2934464318
0.2993779902
0.3054624408
0.311703715
0.3180733432
0.3245260064