/*--------------------------------*- C++ -*----------------------------------*\
| =========                 |                                                 |
| \\      /  F ield         | OpenFOAM: The Open Source CFD Toolbox           |
|  \\    /   O peration     | Version:  2312                                  |
|   \\  /    A nd           | Website:  www.openfoam.com                      |
|    \\/     M anipulation  |                                                 |
\*---------------------------------------------------------------------------*/
FoamFile
{
    version     2.0;
    format      ascii;
    arch        "LSB;label=32;scalar=64";
    class       volScalarField;
    location    "351";
    object      k;
}
// * * * * * * * * * * * * * * * * * * * * * * * * * * * * * * * * * * * * * //

dimensions      [0 2 -2 0 0 0 0];

internalField   nonuniform List<scalar> 
63546
(
0.008304071244
0.009006207795
0.00974514779
0.01052289259
0.01134089907
0.0122002978
0.01310195407
0.01404650181
0.0150343601
0.016065737
0.01714062752
0.01825881002
0.01941984308
0.02062306312
0.02186758323
0.02315229364
0.024475864
0.0258367477
0.02723318825
0.02866322761
0.03012471661
0.03161532722
0.03313256674
0.03467379357
0.03623623451
0.03781700326
0.03941311979
0.04102153049
0.04263912872
0.04426277551
0.04588932037
0.04751562154
0.04913856586
0.05075508771
0.05236218692
0.05395694565
0.05553654371
0.05709827269
0.05863954831
0.06015792141
0.06165108718
0.06311689269
0.06455334307
0.06595860572
0.06733101335
0.06866906524
0.06997142729
0.0712369308
0.07246457003
0.07365349884
0.07480302619
0.07591261097
0.07698185608
0.07801050193
0.07899841949
0.07994560287
0.08085216172
0.08171831344
0.08254437521
0.08333075611
0.08407794925
0.084786524
0.08545711842
0.08609043185
0.08668721788
0.08724827742
0.08777445227
0.0882666189
0.08872568261
0.08915257208
0.08954823421
0.08991362933
0.09024972681
0.09055750092
0.09083792717
0.09109197892
0.09132062431
0.09152482341
0.09170552592
0.09186366884
0.0920001746
0.09211594932
0.09221188145
0.09228884047
0.09234767596
0.09238921669
0.09241426996
0.09242362112
0.09241803314
0.09239824642
0.09236497863
0.09231892472
0.09226075697
0.09219112519
0.09211065695
0.09201995789
0.09191961211
0.09181018253
0.09169221162
0.09156622193
0.09143271579
0.09129217585
0.09114506557
0.09099182975
0.09083288518
0.0906686246
0.09049942597
0.0903256514
0.09014764779
0.08996574762
0.08978026948
0.08959151846
0.08939978655
0.08920535309
0.08900848516
0.08880943808
0.08860845574
0.08840577109
0.08820160653
0.0879961744
0.08778967729
0.0875823085
0.08737425236
0.08716568473
0.08695677323
0.08674767766
0.08653855035
0.08632953651
0.08612077448
0.08591239611
0.085704527
0.0854972869
0.08529078983
0.08508514445
0.08488045427
0.08467681792
0.08447432935
0.08427307805
0.08407314927
0.0838746242
0.08367758019
0.08348209087
0.08328822636
0.08309605339
0.08290563551
0.08271703313
0.08253030373
0.08234550192
0.08216267964
0.08198188615
0.0818031682
0.08162657009
0.08145213389
0.08127989925
0.0811099035
0.08094218183
0.08077676735
0.08061369107
0.08045298195
0.08029466696
0.08013877114
0.07998531758
0.07983432747
0.07968582013
0.07953981305
0.07939632184
0.07925536029
0.07911694038
0.07898107227
0.07884776431
0.07871702304
0.07858885317
0.07846325756
0.07834023727
0.07821979141
0.07810191724
0.07798661031
0.07787386498
0.07776367431
0.07765602957
0.07755091997
0.07744833278
0.07734825343
0.07725066557
0.07715555107
0.07706289007
0.07697266097
0.07688484046
0.07679940353
0.07671632355
0.07663557225
0.07655711981
0.07648093491
0.07640698474
0.07633523504
0.07626565021
0.07619819327
0.07613282602
0.07606950906
0.07600820182
0.07594886272
0.07589144916
0.07583591763
0.07578222381
0.07573032261
0.07568016825
0.07563171441
0.07558491424
0.07553972046
0.07549608549
0.07545396151
0.07541330053
0.0753740545
0.07533617539
0.07529961529
0.07526432646
0.07523026142
0.07519737307
0.07516561471
0.07513494017
0.07510530382
0.07507666076
0.07504896675
0.07502217829
0.07499625272
0.07497114825
0.07494682402
0.07492324015
0.07490035779
0.07487813912
0.07485654746
0.07483554724
0.07481510403
0.07479518458
0.07477575683
0.07475678993
0.0747382542
0.07472012117
0.07470236359
0.07468495535
0.07466787152
0.07465108831
0.07463458307
0.07461833451
0.07460232276
0.07458652933
0.07457093683
0.07455552889
0.07454029017
0.07452520629
0.07451026387
0.07449545041
0.07448075435
0.07446616495
0.07445167231
0.07443726733
0.07442294162
0.07440868755
0.07439449812
0.07438036701
0.07436628848
0.07435225731
0.07433826882
0.07432431881
0.07431040352
0.07429651964
0.07428266418
0.07426883455
0.07425502843
0.07424124381
0.07422747892
0.07421373222
0.07420000237
0.07418628821
0.07417258872
0.07415890302
0.07414523033
0.07413156998
0.07411792133
0.07410428384
0.07409065699
0.07407704028
0.07406343326
0.07404983547
0.07403624644
0.07402266573
0.07400909283
0.07399552725
0.07398196843
0.07396841581
0.07395486878
0.07394132667
0.07392778878
0.07391425436
0.0739007226
0.07388719264
0.07387366358
0.07386013445
0.07384660428
0.0738330721
0.07381953708
0.07380599848
0.07379245559
0.07377890766
0.0737653539
0.07375179347
0.07373822553
0.07372464924
0.07371106374
0.0736974682
0.0736838618
0.07367024371
0.07365661317
0.07364296942
0.07362931175
0.07361563947
0.07360195193
0.07358824853
0.07357452871
0.07356079196
0.07354703781
0.07353326584
0.07351947568
0.07350566701
0.07349183957
0.07347799313
0.07346412755
0.07345024271
0.07343633857
0.07342241513
0.07340847243
0.07339451057
0.07338052971
0.07336653002
0.07335251176
0.0733384752
0.07332442066
0.07331034849
0.07329625908
0.07328215287
0.07326803031
0.07325389189
0.07323973812
0.07322556954
0.07321138671
0.07319719022
0.07318298065
0.07316875867
0.07315452497
0.0731402803
0.07312602546
0.07311176124
0.07309748845
0.07308320788
0.07306892033
0.07305462662
0.07304032755
0.07302602391
0.0730117165
0.07299740613
0.07298309358
0.07296877964
0.07295446508
0.07294015069
0.07292583724
0.07291152547
0.07289721614
0.07288290999
0.07286860775
0.07285431013
0.07284001783
0.07282573155
0.07281145197
0.07279717974
0.07278291551
0.07276865993
0.07275441361
0.07274017715
0.07272595116
0.0727117362
0.07269753286
0.07268334171
0.07266916329
0.07265499816
0.07264084685
0.07262670988
0.07261258775
0.07259848096
0.07258438995
0.07257031521
0.07255625718
0.07254221628
0.07252819294
0.07251418758
0.0725002006
0.07248623238
0.07247228331
0.07245835375
0.07244444406
0.07243055458
0.07241668567
0.07240283765
0.07238901085
0.07237520558
0.07236142216
0.07234766087
0.07233392202
0.07232020588
0.07230651274
0.07229284285
0.07227919649
0.0722655739
0.07225197535
0.07223840106
0.07222485129
0.07221132626
0.07219782619
0.07218435132
0.07217090185
0.072157478
0.07214407997
0.07213070796
0.07211736216
0.07210404277
0.07209074996
0.07207748392
0.07206424481
0.07205103282
0.07203784809
0.0720246908
0.07201156109
0.07199845912
0.07198538505
0.07197233901
0.07195932114
0.07194633158
0.07193337046
0.07192043792
0.07190753406
0.07189465902
0.07188181291
0.07186899584
0.07185620792
0.07184344925
0.07183071994
0.07181802007
0.07180534974
0.07179270905
0.07178009807
0.07176751688
0.07175496555
0.07174244417
0.07172995279
0.07171749148
0.0717050603
0.0716926593
0.07168028856
0.0716679481
0.071655638
0.07164335828
0.071631109
0.07161889018
0.07160670188
0.07159454412
0.07158241693
0.07157032033
0.07155825437
0.07154621905
0.0715342144
0.07152224044
0.07151029719
0.07149838465
0.07148650285
0.0714746518
0.07146283149
0.07145104194
0.07143928315
0.07142755511
0.07141585783
0.07140419131
0.07139255553
0.0713809505
0.0713693762
0.07135783262
0.07134631975
0.07133483758
0.07132338608
0.07131196526
0.07130057508
0.07128921554
0.07127788661
0.07126658826
0.07125532049
0.07124408326
0.07123287655
0.07122170033
0.07121055457
0.07119943926
0.07118835435
0.07117729983
0.07116627566
0.0711552818
0.07114431824
0.07113338494
0.07112248186
0.07111160897
0.07110076625
0.07108995366
0.07107917116
0.07106841873
0.07105769633
0.07104700392
0.07103634148
0.07102570898
0.07101510638
0.07100453364
0.07099399073
0.07098347763
0.07097299429
0.07096254068
0.07095211678
0.07094172254
0.07093135794
0.07092102295
0.07091071754
0.07090044167
0.07089019532
0.07087997846
0.07086979107
0.07085963312
0.07084950459
0.07083940545
0.07082933569
0.07081929528
0.0708092842
0.07079930244
0.07078934999
0.07077942682
0.07076953293
0.07075966831
0.07074983296
0.07074002687
0.07073025003
0.07072050247
0.07071078417
0.07070109514
0.07069143541
0.07068180498
0.07067220388
0.07066263211
0.07065308972
0.07064357673
0.07063409318
0.07062463911
0.07061521456
0.07060581958
0.07059645423
0.07058711857
0.07057781267
0.0705685366
0.07055929045
0.0705500743
0.07054088825
0.0705317324
0.07052260688
0.07051351179
0.07050444728
0.07049541349
0.07048641056
0.07047743866
0.07046849798
0.07045958868
0.07045071098
0.07044186509
0.07043305123
0.07042426964
0.07041552059
0.07040680435
0.0703981212
0.07038947145
0.07038085544
0.07037227351
0.07036372604
0.07035521342
0.07034673606
0.07033829441
0.07032988894
0.07032152014
0.07031318854
0.07030489468
0.07029663917
0.0702884226
0.07028024565
0.07027210899
0.07026401336
0.07025595952
0.07024794829
0.07023998053
0.07023205715
0.07022417909
0.07021634736
0.07020856304
0.07020082724
0.07019314113
0.07018550598
0.07017792309
0.07017039384
0.0701629197
0.0701555022
0.07014814295
0.07014084367
0.07013360615
0.07012643227
0.07011932404
0.07011228355
0.07010531301
0.07009841475
0.07009159123
0.07008484501
0.07007817884
0.07007159557
0.07006509821
0.07005868995
0.07005237413
0.07004615427
0.07004003409
0.07003401749
0.07002810858
0.07002231169
0.07001663138
0.07001107246
0.07000563999
0.0700003393
0.069995176
0.06999015601
0.06998528558
0.06998057127
0.06997602003
0.06997163917
0.06996743639
0.06996341982
0.06995959816
0.06995598074
0.06995257744
0.06994939433
0.06994644026
0.06994372801
0.06994126978
0.06993907799
0.06993716561
0.06993554612
0.0699342335
0.06993324232
0.0699325878
0.06993228586
0.06993235321
0.06993280739
0.06993366691
0.06993495121
0.06993668082
0.0699388774
0.06994156385
0.06994476437
0.06994850461
0.0699528117
0.06995771442
0.06996324324
0.06996943048
0.06997631042
0.06998391941
0.06999229603
0.07000148124
0.07001151853
0.07002245413
0.07003433717
0.0700472199
0.07006115794
0.07007621052
0.07009244074
0.07010991589
0.07012870778
0.07014889308
0.07017055376
0.0701937775
0.07021865819
0.07024529647
0.07027380036
0.07030428588
0.07033687786
0.07037171074
0.07040892956
0.07044869098
0.07049116457
0.07053653411
0.07058499923
0.07063677718
0.07069210493
0.07075124156
0.07081447108
0.07088210568
0.07095448958
0.07103200354
0.07111507027
0.0712041608
0.07129980209
0.0714025861
0.07151318034
0.07163233997
0.07176092022
0.07189988666
0.07205031422
0.07221334183
0.07239007004
0.07258918884
0.007789230709
0.007806930192
0.007829379418
0.007855797899
0.007885776162
0.007919061995
0.007955496992
0.007994989903
0.008037485217
0.00808295553
0.008131393127
0.00818280648
0.008237216963
0.008294655397
0.008355159157
0.008418769547
0.008485531141
0.008555489084
0.008628687232
0.008705166488
0.008784963692
0.008868109705
0.008954627201
0.009044529772
0.009137821102
0.009234494109
0.009334533727
0.009437909475
0.009544578314
0.009654483411
0.009767555082
0.009883712691
0.01000286354
0.01012490399
0.01024972009
0.01037718829
0.0105071762
0.01063954382
0.01077414468
0.01091082683
0.01104943396
0.01118980661
0.01133178336
0.01147520206
0.01161990115
0.01176572086
0.01191250375
0.01206009545
0.0122083457
0.0123571095
0.01250624796
0.01265562887
0.01280512724
0.01295462613
0.0131040173
0.01325320163
0.01340208954
0.01355060135
0.01369866755
0.01384622906
0.01399323743
0.01413965498
0.0142854549
0.01443062125
0.01457514904
0.01471904408
0.01486232297
0.01500501294
0.01514715169
0.0152887874
0.01542997863
0.01557079406
0.0157113122
0.01585162107
0.01599181806
0.01613200965
0.01627231119
0.01641284673
0.01655374878
0.01669515814
0.01683722369
0.01698010194
0.01712395694
0.01726896007
0.01741529005
0.0175631328
0.01771268126
0.01786413538
0.01801770193
0.01817359455
0.01833203367
0.01849324651
0.01865746714
0.01882493647
0.01899590231
0.01917061944
0.01934934967
0.01953236168
0.01971993178
0.01991234612
0.02010990146
0.02031290554
0.02052167771
0.02073650951
0.02095390373
0.02117100712
0.02138805295
0.02160525197
0.02182280091
0.02204088367
0.02225967224
0.02247932784
0.02270000199
0.02292183726
0.023144968
0.02336952088
0.02359561543
0.02382336442
0.02405287436
0.02428424578
0.0245175737
0.02475294777
0.0249904526
0.02523016783
0.02547216842
0.02571652474
0.0259633027
0.0262125638
0.02646436527
0.02671876011
0.02697579716
0.02723552104
0.02749797228
0.02776318729
0.02803119837
0.02830203362
0.02857571706
0.02885226851
0.02913170362
0.02941403382
0.02969926621
0.02998740367
0.03027844473
0.03057238354
0.03086920981
0.03116890882
0.03147146136
0.03177684369
0.03208502745
0.03239597974
0.03270966301
0.03302603507
0.03334504917
0.03366665426
0.03399079459
0.03431740951
0.03464643369
0.03497779747
0.03531142668
0.03564724264
0.03598516224
0.03632509807
0.03666695847
0.03701064762
0.03735606562
0.03770310879
0.03805166965
0.03840163718
0.03875289699
0.03910533143
0.03945882
0.03981323951
0.04016846449
0.04052436753
0.04088081984
0.0412376912
0.04159484697
0.04195214027
0.04230941932
0.0426665323
0.04302332645
0.04337964812
0.04373534301
0.04409025634
0.04444423323
0.04479711896
0.04514875941
0.04549900137
0.04584769282
0.04619468317
0.04653982355
0.04688296704
0.04722396917
0.04756268809
0.04789898486
0.04823272381
0.0485637728
0.04889200347
0.04921729143
0.04953951664
0.04985856357
0.05017432141
0.05048668424
0.05079555134
0.05110082725
0.05140242196
0.05170025098
0.05199423558
0.0522843028
0.0525703856
0.05285242282
0.05313035934
0.05340414607
0.05367373993
0.05393910382
0.05420020669
0.05445702339
0.05470953468
0.05495772705
0.05520159269
0.05544112935
0.05567634029
0.05590723418
0.05613382484
0.05635613104
0.05657417633
0.05678798898
0.05699760165
0.05720305129
0.05740437885
0.05760162916
0.05779485058
0.05798409494
0.05816941718
0.05835087521
0.0585285296
0.05870244344
0.05887268212
0.05903931305
0.05920240531
0.05936202911
0.05951825414
0.05967114893
0.05982078461
0.05996723747
0.06011058519
0.06025090379
0.06038826785
0.06052275118
0.06065442684
0.06078336701
0.06090964294
0.06103332475
0.06115448145
0.06127318075
0.06138948901
0.06150347111
0.0616151904
0.06172470866
0.06183208599
0.06193738075
0.0620406496
0.06214194741
0.06224132726
0.06233884039
0.06243453622
0.06252846233
0.0626206645
0.06271118669
0.06280007109
0.06288735815
0.06297308659
0.06305729346
0.06314001416
0.06322128253
0.06330113082
0.06337958984
0.06345668889
0.06353245592
0.06360691757
0.06368009918
0.06375202492
0.06382271786
0.06389220003
0.06396049248
0.06402761526
0.06409358756
0.06415842772
0.06422215337
0.0642847814
0.06434632808
0.06440680911
0.06446623966
0.06452463441
0.06458200763
0.06463837313
0.06469374427
0.06474813382
0.06480155387
0.06485401686
0.06490553653
0.06495612675
0.06500580028
0.06505456915
0.06510244518
0.06514944024
0.06519556618
0.06524083486
0.06528525813
0.06532884785
0.0653716159
0.06541357416
0.06545473454
0.06549510892
0.06553470922
0.06557354735
0.06561163524
0.06564898483
0.06568560802
0.06572151674
0.0657567229
0.06579123837
0.06582507499
0.06585824459
0.06589075892
0.06592262966
0.06595386848
0.06598448703
0.06601449688
0.06604390953
0.06607273636
0.06610098867
0.06612867767
0.06615581444
0.06618240993
0.06620847499
0.06623402032
0.06625905647
0.06628359386
0.06630764277
0.06633121331
0.06635431544
0.06637695896
0.06639915345
0.06642090827
0.0664422325
0.06646313496
0.06648362437
0.06650370953
0.06652339925
0.0665427021
0.06656162638
0.06658018019
0.06659837148
0.06661620797
0.06663369722
0.0666508466
0.06666766329
0.06668415428
0.0667003264
0.0667161863
0.06673174045
0.06674699518
0.06676195666
0.06677663089
0.06679102372
0.06680514087
0.06681898789
0.0668325702
0.06684589309
0.06685896169
0.06687178102
0.06688435597
0.06689669131
0.06690879169
0.06692066164
0.06693230556
0.06694372776
0.0669549324
0.06696592358
0.06697670531
0.06698728156
0.06699765622
0.0670078331
0.06701781589
0.06702760821
0.06703721355
0.06704663535
0.06705587696
0.06706494166
0.06707383268
0.0670825532
0.06709110632
0.06709949508
0.06710772247
0.06711579141
0.06712370476
0.06713146534
0.06713907591
0.06714653918
0.06715385782
0.06716103446
0.06716807169
0.06717497205
0.06718173801
0.06718837204
0.06719487652
0.06720125383
0.06720750627
0.06721363614
0.06721964568
0.06722553707
0.06723131249
0.06723697406
0.06724252387
0.06724796398
0.06725329639
0.0672585231
0.06726364605
0.06726866716
0.06727358831
0.06727841134
0.06728313807
0.06728777027
0.06729230968
0.06729675802
0.06730111695
0.06730538813
0.06730957317
0.06731367366
0.06731769116
0.0673216272
0.06732548327
0.06732926084
0.06733296136
0.06733658624
0.06734013685
0.06734361457
0.06734702071
0.06735035659
0.06735362347
0.0673568226
0.06735995523
0.06736302254
0.06736602572
0.06736896592
0.06737184427
0.06737466189
0.06737741985
0.06738011922
0.06738276104
0.06738534631
0.06738787602
0.06739035116
0.06739277268
0.06739514151
0.06739745859
0.06739972482
0.06740194108
0.06740410824
0.06740622716
0.06740829867
0.06741032358
0.0674123027
0.06741423681
0.06741612668
0.06741797307
0.06741977673
0.06742153839
0.06742325878
0.06742493861
0.06742657856
0.06742817932
0.06742974154
0.06743126589
0.06743275301
0.06743420353
0.06743561807
0.06743699723
0.06743834163
0.06743965184
0.06744092845
0.06744217203
0.06744338314
0.06744456234
0.06744571015
0.06744682713
0.06744791379
0.06744897066
0.06744999824
0.06745099704
0.06745196754
0.06745291023
0.06745382559
0.06745471407
0.06745557615
0.06745641227
0.06745722287
0.0674580084
0.06745876928
0.06745950594
0.0674602188
0.06746090827
0.06746157475
0.06746221865
0.06746284036
0.06746344027
0.06746401875
0.06746457619
0.06746511295
0.0674656294
0.06746612589
0.06746660278
0.06746706041
0.06746749913
0.06746791927
0.06746832116
0.06746870513
0.06746907149
0.06746942056
0.06746975265
0.06747006806
0.06747036711
0.06747065008
0.06747091727
0.06747116896
0.06747140546
0.06747162703
0.06747183395
0.06747202649
0.06747220493
0.06747236952
0.06747252052
0.06747265819
0.06747278279
0.06747289455
0.06747299372
0.06747308055
0.06747315528
0.06747321815
0.06747326939
0.06747330925
0.06747333795
0.06747335572
0.06747336278
0.06747335936
0.06747334567
0.06747332193
0.06747328836
0.06747324517
0.06747319256
0.06747313075
0.06747305995
0.06747298036
0.06747289218
0.06747279562
0.06747269088
0.06747257815
0.06747245765
0.06747232956
0.06747219409
0.06747205143
0.06747190179
0.06747174536
0.06747158233
0.0674714129
0.06747123727
0.06747105564
0.0674708682
0.06747067515
0.06747047668
0.067470273
0.0674700643
0.06746985078
0.06746963266
0.06746941013
0.06746918339
0.06746895266
0.06746871815
0.06746848008
0.06746823865
0.0674679941
0.06746774664
0.06746749651
0.06746724394
0.06746698916
0.06746673242
0.06746647396
0.06746621403
0.06746595289
0.0674656908
0.06746542804
0.06746516487
0.06746490159
0.0674646385
0.06746437589
0.06746411408
0.06746385339
0.06746359416
0.06746333673
0.06746308145
0.06746282868
0.06746257882
0.06746233225
0.06746208939
0.06746185065
0.06746161648
0.06746138734
0.0674611637
0.06746094606
0.06746073493
0.06746053086
0.06746033441
0.06746014615
0.0674599667
0.06745979669
0.0674596368
0.06745948772
0.06745935017
0.06745922492
0.06745911277
0.06745901454
0.06745893112
0.06745886341
0.06745881237
0.067458779
0.06745876435
0.06745876953
0.06745879567
0.06745884399
0.06745891576
0.06745901229
0.06745913498
0.06745928529
0.06745946474
0.06745967493
0.06745991754
0.06746019434
0.06746050709
0.06746085754
0.06746124728
0.0674616775
0.06746214837
0.06746265932
0.06746319983
0.06746377075
0.06746428974
0.06746469611
0.06746497419
0.06746511233
0.06746510085
0.06746492826
0.06746458295
0.06746405374
0.06746333011
0.06746240173
0.06746125796
0.06745988772
0.06745827936
0.06745642076
0.0674542993
0.06745190192
0.06744921501
0.06744622436
0.06744291503
0.06743927128
0.06743527649
0.06743091307
0.06742616237
0.06742100464
0.06741541887
0.06740938271
0.06740287233
0.0673958623
0.0673883254
0.06738023249
0.06737155233
0.06736225134
0.06735229344
0.06734163977
0.06733024839
0.06731807402
0.06730506763
0.06729117609
0.06727634166
0.06726050147
0.06724358693
0.06722552298
0.06720622735
0.06718560949
0.06716356952
0.06713999685
0.06711476855
0.06708774747
0.06705877979
0.06702769218
0.06699428813
0.06695834343
0.06691960032
0.06687775995
0.06683247244
0.06678332349
0.06672981603
0.06667134439
0.06660715698
0.06653630066
0.06645753494
0.06636919456
0.06626896033
0.06615345981
0.06601753887
0.06585285756
0.06564532821
0.06533963754
0.007778331
0.007777164455
0.007776676746
0.007776754268
0.007777313953
0.007778288726
0.007779622942
0.007781270784
0.007783193544
0.007785357638
0.007787732618
0.007790281293
0.007792977823
0.007795798674
0.007798721023
0.007801722852
0.007804782888
0.00780788048
0.007810995481
0.007814108164
0.007817199298
0.007820252158
0.007823249221
0.007826172121
0.007829002654
0.007831722735
0.007834314437
0.007836759961
0.007839041653
0.007841142018
0.007843043749
0.007844729768
0.007846183193
0.007847387422
0.007848326322
0.007848984226
0.007849345954
0.007849396932
0.007849123274
0.007848511793
0.007847550047
0.007846226386
0.007844530004
0.007842450992
0.007839980386
0.007837110311
0.007833833952
0.00783014547
0.007826039411
0.007821511904
0.007816560619
0.007811184378
0.007805383097
0.007799157818
0.007792510763
0.007785445338
0.007777966127
0.007770078899
0.007761790607
0.007753109377
0.007744044507
0.007734606455
0.007724806828
0.007714658367
0.007704174932
0.007693371478
0.007682264032
0.007670869653
0.007659206405
0.007647293386
0.007635150747
0.007622799644
0.007610262186
0.007597561402
0.007584721221
0.007571766454
0.007558722778
0.007545616719
0.007532475645
0.007519327771
0.007506202162
0.007493128632
0.007480137702
0.007467260626
0.007454529415
0.007441976846
0.007429636464
0.007417542573
0.007405730251
0.007394235353
0.00738309454
0.007372345285
0.0073620259
0.007352175564
0.007342834352
0.007334043273
0.007325844304
0.007318280447
0.007311395827
0.007305235971
0.007299848055
0.007295281012
0.007291585894
0.007288811049
0.007286976739
0.007286088541
0.00728615759
0.007287196602
0.007289220339
0.007292245566
0.007296290916
0.007301376764
0.00730752512
0.007314759522
0.007323104957
0.007332587773
0.00734323557
0.007355077139
0.007368142439
0.007382462578
0.007398069791
0.00741499741
0.007433279854
0.007452952608
0.007474052236
0.007496616372
0.007520683735
0.00754629413
0.00757348848
0.007602308837
0.007632798413
0.007665001594
0.007698963993
0.007734732467
0.007772355167
0.007811881563
0.007853362507
0.007896850266
0.007942398574
0.007990062688
0.008039899429
0.008091967256
0.008146326314
0.008203038501
0.008262167514
0.008323778943
0.008387940315
0.008454721177
0.008524193146
0.00859643001
0.008671507812
0.008749504962
0.008830502306
0.008914583309
0.009001834014
0.009092343149
0.009186201984
0.009283504224
0.009384347314
0.009488831778
0.00959706133
0.009709143033
0.009825187384
0.00994530841
0.01006962379
0.01019825503
0.0103313276
0.01046897105
0.01061131913
0.01075850998
0.01091068629
0.0110679955
0.01123059009
0.01139862793
0.01157227311
0.01175169609
0.01193705602
0.01212653042
0.0123190486
0.01251466371
0.01271342336
0.01291537124
0.01312054706
0.01332898649
0.01354072119
0.01375577869
0.01397418254
0.0141959522
0.01442110309
0.01464964649
0.01488158958
0.01511693488
0.01535568067
0.01559782098
0.01584334542
0.01609223932
0.01634448358
0.01660005474
0.01685892485
0.01712106159
0.01738642822
0.01765498358
0.01792668208
0.01820147381
0.0184793045
0.01876011561
0.01904384424
0.01933042336
0.01961978176
0.01991184419
0.02020653134
0.02050376008
0.02080344347
0.02110549088
0.0214098081
0.02171629752
0.02202485825
0.02233538626
0.02264777448
0.02296191311
0.02327768956
0.02359498884
0.02391369376
0.02423368508
0.02455484177
0.02487704116
0.02520015915
0.02552407043
0.02584864879
0.0261737673
0.02649929857
0.02682511493
0.02715108881
0.02747709294
0.02780300059
0.02812868585
0.02845402394
0.0287788915
0.02910316691
0.0294267305
0.02974946503
0.03007125551
0.03039198778
0.03071154337
0.03102980075
0.03134664287
0.03166195591
0.03197562885
0.03228755379
0.0325976259
0.03290574363
0.03321180886
0.03351572693
0.03381740687
0.03411676147
0.03441370738
0.03470816514
0.03500005936
0.03528931878
0.03557587629
0.03585966903
0.0361406382
0.03641872914
0.0366938914
0.03696607871
0.03723524898
0.03750136426
0.03776439072
0.03802429854
0.03828106198
0.03853465923
0.03878507237
0.03903228723
0.03927629344
0.03951708422
0.03975465633
0.03998900995
0.04022014851
0.04044807869
0.04067281018
0.04089435563
0.04111273045
0.04132795282
0.04154004349
0.04174902568
0.04195492486
0.0421577687
0.04235758691
0.04255441114
0.04274827476
0.04293921284
0.04312726195
0.0433124601
0.0434948465
0.04367446159
0.04385134674
0.04402554412
0.04419709603
0.04436604377
0.04453242878
0.04469629563
0.04485769098
0.04501666097
0.04517325099
0.04532750599
0.04547947069
0.04562918944
0.04577670627
0.04592206478
0.04606530812
0.04620647889
0.04634561916
0.0464827704
0.0466179734
0.04675126826
0.04688269437
0.04701229034
0.04714009403
0.04726614244
0.04739047177
0.04751311739
0.04763411378
0.04775349457
0.04787129254
0.04798753956
0.04810226668
0.04821550406
0.04832728103
0.04843762607
0.04854656681
0.04865413007
0.04876034179
0.04886522719
0.04896881065
0.04907111585
0.04917216567
0.04927198231
0.04937058725
0.04946800131
0.04956424464
0.0496593368
0.04975329678
0.04984614296
0.04993789315
0.05002856454
0.05011817365
0.05020673627
0.05029426786
0.05038078406
0.05046630031
0.05055083136
0.05063439129
0.05071699384
0.0507986524
0.05087938009
0.05095918972
0.05103809384
0.05111610472
0.05119323441
0.0512694947
0.05134489718
0.0514194532
0.05149317396
0.05156607044
0.05163815345
0.05170943363
0.05177992146
0.05184962729
0.0519185613
0.05198673353
0.05205415393
0.0521208323
0.05218677832
0.05225200156
0.05231651149
0.05238031748
0.05244342874
0.05250585441
0.05256760348
0.05262868485
0.05268910735
0.05274887977
0.05280801086
0.05286650926
0.05292438352
0.05298164211
0.05303829339
0.05309434562
0.05314980695
0.05320468545
0.05325898914
0.05331272592
0.05336590366
0.05341853008
0.05347061285
0.05352215952
0.05357317757
0.05362367434
0.05367365712
0.05372313309
0.05377210935
0.05382059289
0.05386859064
0.05391610941
0.05396315591
0.05400973677
0.0540558585
0.05410152753
0.0541467502
0.05419153273
0.05423588127
0.05427980187
0.05432330047
0.05436638293
0.05440905501
0.05445132237
0.05449319058
0.05453466514
0.05457575144
0.05461645479
0.05465678039
0.05469673338
0.05473631879
0.05477554156
0.05481440657
0.05485291859
0.0548910823
0.05492890233
0.0549663832
0.05500352937
0.05504034522
0.05507683505
0.0551130031
0.05514885352
0.0551843904
0.05521961776
0.05525453953
0.05528915962
0.05532348182
0.0553575099
0.05539124753
0.05542469835
0.05545786593
0.05549075378
0.05552336535
0.05555570404
0.0555877732
0.05561957613
0.05565111606
0.05568239618
0.05571341962
0.05574418946
0.05577470873
0.05580498042
0.05583500748
0.05586479282
0.0558943393
0.05592364974
0.05595272692
0.05598157358
0.0560101924
0.05603858605
0.05606675715
0.05609470828
0.05612244196
0.05614996071
0.056177267
0.05620436328
0.05623125195
0.05625793539
0.05628441597
0.05631069598
0.05633677771
0.0563626634
0.05638835527
0.05641385552
0.05643916629
0.05646428971
0.05648922789
0.0565139829
0.05653855677
0.05656295152
0.05658716915
0.05661121162
0.05663508085
0.05665877878
0.05668230727
0.0567056682
0.0567288634
0.05675189469
0.05677476386
0.05679747268
0.05682002287
0.05684241617
0.05686465426
0.05688673881
0.05690867148
0.05693045389
0.05695208763
0.0569735743
0.05699491546
0.05701611264
0.05703716737
0.05705808115
0.05707885546
0.05709949177
0.05711999151
0.05714035611
0.05716058698
0.05718068549
0.05720065301
0.0572204909
0.05724020048
0.05725978307
0.05727923997
0.05729857245
0.05731778177
0.05733686918
0.05735583589
0.05737468312
0.05739341206
0.05741202389
0.05743051977
0.05744890085
0.05746716827
0.05748532315
0.05750336659
0.05752129968
0.0575391235
0.05755683911
0.05757444756
0.05759194988
0.05760934709
0.0576266402
0.0576438302
0.05766091806
0.05767790476
0.05769479124
0.05771157844
0.05772826731
0.05774485876
0.0577613537
0.05777775304
0.05779405765
0.05781026842
0.05782638619
0.05784241183
0.05785834616
0.05787419001
0.05788994421
0.05790560956
0.05792118685
0.05793667687
0.05795208039
0.05796739819
0.057982631
0.05799777957
0.05801284464
0.05802782693
0.05804272716
0.05805754603
0.05807228423
0.05808694246
0.05810152138
0.05811602166
0.05813044395
0.05814478891
0.05815905717
0.05817324934
0.05818736606
0.05820140792
0.05821537552
0.05822926944
0.05824309027
0.05825683857
0.0582705149
0.05828411979
0.05829765379
0.05831111743
0.05832451122
0.05833783567
0.05835109128
0.05836427854
0.05837739793
0.0583904499
0.05840343492
0.05841635344
0.05842920588
0.05844199267
0.05845471421
0.05846737091
0.05847996314
0.05849249129
0.05850495572
0.05851735679
0.05852969483
0.05854197017
0.05855418313
0.05856633399
0.05857842306
0.05859045059
0.05860241685
0.05861432207
0.05862616647
0.05863795027
0.05864967366
0.0586613368
0.05867293986
0.05868448297
0.05869596624
0.05870738978
0.05871875366
0.05873005794
0.05874130264
0.05875248777
0.05876361333
0.05877467926
0.0587856855
0.05879663195
0.0588075185
0.05881834499
0.05882911123
0.05883981701
0.05885046208
0.05886104615
0.05887156889
0.05888202993
0.05889242887
0.05890276524
0.05891303854
0.05892324822
0.05893339365
0.05894347417
0.05895348904
0.05896343748
0.05897331859
0.05898313142
0.05899287491
0.05900254784
0.05901214883
0.05902167621
0.05903112819
0.05904050313
0.05904979963
0.0590590183
0.05906815958
0.05907722147
0.05908624432
0.05909521078
0.05910404278
0.05911268063