/*--------------------------------*- C++ -*----------------------------------*\
| =========                 |                                                 |
| \\      /  F ield         | OpenFOAM: The Open Source CFD Toolbox           |
|  \\    /   O peration     | Version:  2312                                  |
|   \\  /    A nd           | Website:  www.openfoam.com                      |
|    \\/     M anipulation  |                                                 |
\*---------------------------------------------------------------------------*/
FoamFile
{
    version     2.0;
    format      ascii;
    arch        "LSB;label=32;scalar=64";
    class       volScalarField;
    location    "351";
    object      nut;
}
// * * * * * * * * * * * * * * * * * * * * * * * * * * * * * * * * * * * * * //

dimensions      [0 2 -1 0 0 0 0];

internalField   nonuniform List<scalar> 
63546
(
1.436068488e-05
1.495548841e-05
1.555692772e-05
1.616579949e-05
1.678237271e-05
1.740663549e-05
1.803838515e-05
1.867728341e-05
1.932289052e-05
1.99746853e-05
2.063207833e-05
2.129442189e-05
2.196101847e-05
2.263112819e-05
2.33039754e-05
2.397875499e-05
2.465463826e-05
2.533077873e-05
2.600631767e-05
2.668038949e-05
2.7352127e-05
2.802066641e-05
2.868515229e-05
2.934474222e-05
2.999861124e-05
3.064595606e-05
3.12859989e-05
3.191799108e-05
3.254121618e-05
3.315499301e-05
3.375867807e-05
3.435166774e-05
3.493340008e-05
3.550335626e-05
3.606106157e-05
3.660608618e-05
3.713804544e-05
3.765659993e-05
3.816145522e-05
3.865236128e-05
3.912911172e-05
3.959154267e-05
4.00395316e-05
4.047299585e-05
4.0891891e-05
4.129620916e-05
4.168597709e-05
4.206125425e-05
4.242213083e-05
4.276872568e-05
4.310118426e-05
4.341967653e-05
4.372439492e-05
4.401555226e-05
4.429337981e-05
4.455812526e-05
4.481005089e-05
4.504943168e-05
4.52765536e-05
4.549171193e-05
4.569520966e-05
4.588735599e-05
4.606846496e-05
4.623885406e-05
4.639884306e-05
4.654875286e-05
4.668890443e-05
4.681961786e-05
4.694121147e-05
4.705400104e-05
4.715829907e-05
4.725441414e-05
4.734265035e-05
4.742330678e-05
4.749667707e-05
4.756304907e-05
4.762270446e-05
4.767591853e-05
4.772295993e-05
4.776409047e-05
4.779956507e-05
4.782963154e-05
4.785453062e-05
4.787449588e-05
4.78897538e-05
4.79005237e-05
4.790701787e-05
4.79094416e-05
4.790799327e-05
4.790286444e-05
4.789424e-05
4.788229829e-05
4.786721122e-05
4.784914445e-05
4.782825753e-05
4.780470409e-05
4.777863198e-05
4.775018347e-05
4.771949546e-05
4.76866997e-05
4.765192274e-05
4.761528611e-05
4.757690646e-05
4.753689577e-05
4.749535889e-05
4.745239457e-05
4.740809794e-05
4.736256019e-05
4.731586878e-05
4.726810764e-05
4.721935728e-05
4.716969497e-05
4.711919477e-05
4.706792768e-05
4.701596172e-05
4.696336208e-05
4.69101912e-05
4.685650885e-05
4.68023723e-05
4.674783635e-05
4.669295349e-05
4.663777396e-05
4.658234585e-05
4.652671519e-05
4.647092605e-05
4.641502061e-05
4.635903925e-05
4.630302064e-05
4.624700179e-05
4.619101814e-05
4.613510362e-05
4.607929075e-05
4.602361068e-05
4.596809323e-05
4.591276698e-05
4.585765934e-05
4.580279657e-05
4.574820384e-05
4.569390528e-05
4.563992403e-05
4.558628229e-05
4.553300133e-05
4.548010158e-05
4.54276026e-05
4.537552318e-05
4.532388131e-05
4.527269425e-05
4.522197855e-05
4.517175007e-05
4.512202399e-05
4.507281485e-05
4.502413658e-05
4.49760025e-05
4.492842532e-05
4.488141715e-05
4.483498952e-05
4.478915341e-05
4.474391925e-05
4.469929691e-05
4.465529572e-05
4.461192449e-05
4.45691915e-05
4.452710449e-05
4.448567068e-05
4.44448968e-05
4.440478902e-05
4.4365353e-05
4.432659391e-05
4.428851636e-05
4.425112446e-05
4.421442178e-05
4.417841136e-05
4.414309571e-05
4.410847679e-05
4.407455599e-05
4.404133415e-05
4.40088116e-05
4.397698831e-05
4.394586381e-05
4.391543714e-05
4.388570669e-05
4.385667028e-05
4.382832515e-05
4.380066802e-05
4.377369503e-05
4.374740183e-05
4.37217835e-05
4.369683461e-05
4.367254919e-05
4.364892078e-05
4.362594239e-05
4.360360656e-05
4.358190536e-05
4.356083037e-05
4.354037275e-05
4.35205232e-05
4.3501272e-05
4.348260903e-05
4.34645238e-05
4.344700544e-05
4.343004273e-05
4.341362415e-05
4.339773787e-05
4.338237178e-05
4.336751353e-05
4.335315052e-05
4.333926998e-05
4.332585895e-05
4.33129043e-05
4.33003928e-05
4.328831112e-05
4.327664584e-05
4.326538352e-05
4.325451068e-05
4.324401386e-05
4.323387961e-05
4.322409456e-05
4.321464541e-05
4.320551895e-05
4.319670212e-05
4.318818199e-05
4.317994582e-05
4.317198106e-05
4.316427533e-05
4.31568165e-05
4.314959267e-05
4.314259221e-05
4.313580374e-05
4.312921616e-05
4.31228187e-05
4.311660086e-05
4.311055248e-05
4.310466371e-05
4.309892504e-05
4.309332729e-05
4.308786163e-05
4.308251954e-05
4.307729287e-05
4.307217381e-05
4.306715486e-05
4.306222888e-05
4.305738902e-05
4.30526288e-05
4.304794209e-05
4.304332319e-05
4.303876678e-05
4.303426786e-05
4.302982173e-05
4.302542398e-05
4.302107048e-05
4.301675736e-05
4.301248105e-05
4.300823821e-05
4.300402574e-05
4.299984081e-05
4.299568078e-05
4.299154325e-05
4.298742601e-05
4.298332705e-05
4.297924455e-05
4.297517686e-05
4.297112247e-05
4.296708002e-05
4.296304832e-05
4.295902628e-05
4.295501294e-05
4.295100744e-05
4.294700903e-05
4.294301706e-05
4.293903093e-05
4.293505013e-05
4.293107423e-05
4.292710283e-05
4.29231356e-05
4.291917225e-05
4.291521253e-05
4.291125621e-05
4.290730309e-05
4.290335299e-05
4.289940576e-05
4.289546125e-05
4.289151931e-05
4.288757981e-05
4.288364262e-05
4.287970761e-05
4.287577465e-05
4.287184359e-05
4.286791429e-05
4.286398658e-05
4.286006032e-05
4.285613531e-05
4.285221137e-05
4.284828829e-05
4.284436586e-05
4.284044384e-05
4.283652199e-05
4.283260003e-05
4.28286777e-05
4.28247547e-05
4.282083077e-05
4.281690565e-05
4.281297913e-05
4.2809051e-05
4.280512106e-05
4.280118906e-05
4.279725477e-05
4.279331793e-05
4.278937831e-05
4.278543566e-05
4.278148972e-05
4.277754027e-05
4.277358706e-05
4.276962988e-05
4.276566849e-05
4.276170269e-05
4.275773227e-05
4.275375706e-05
4.274977688e-05
4.274579155e-05
4.274180093e-05
4.273780489e-05
4.273380329e-05
4.272979603e-05
4.272578302e-05
4.272176417e-05
4.271773942e-05
4.271370873e-05
4.270967206e-05
4.27056294e-05
4.270158074e-05
4.269752609e-05
4.269346549e-05
4.268939897e-05
4.268532659e-05
4.268124842e-05
4.267716454e-05
4.267307503e-05
4.266897999e-05
4.266487955e-05
4.266077383e-05
4.265666295e-05
4.265254705e-05
4.264842629e-05
4.264430082e-05
4.26401708e-05
4.26360364e-05
4.263189779e-05
4.262775517e-05
4.262360872e-05
4.261945868e-05
4.261530527e-05
4.261114872e-05
4.260698927e-05
4.260282714e-05
4.259866258e-05
4.259449581e-05
4.259032707e-05
4.258615659e-05
4.25819846e-05
4.257781134e-05
4.257363703e-05
4.256946191e-05
4.25652862e-05
4.256111013e-05
4.255693393e-05
4.25527578e-05
4.254858198e-05
4.254440667e-05
4.25402321e-05
4.253605846e-05
4.253188597e-05
4.252771483e-05
4.252354523e-05
4.251937738e-05
4.251521145e-05
4.251104764e-05
4.250688612e-05
4.250272708e-05
4.249857069e-05
4.249441712e-05
4.249026654e-05
4.248611911e-05
4.2481975e-05
4.247783437e-05
4.247369738e-05
4.246956418e-05
4.246543492e-05
4.246130973e-05
4.245718877e-05
4.245307216e-05
4.244896004e-05
4.244485253e-05
4.244074977e-05
4.243665187e-05
4.243255895e-05
4.242847113e-05
4.242438852e-05
4.242031122e-05
4.241623936e-05
4.241217302e-05
4.240811231e-05
4.240405733e-05
4.240000817e-05
4.239596494e-05
4.239192772e-05
4.23878966e-05
4.238387167e-05
4.237985301e-05
4.237584071e-05
4.237183484e-05
4.236783549e-05
4.236384273e-05
4.235985664e-05
4.235587729e-05
4.235190476e-05
4.23479391e-05
4.23439804e-05
4.234002871e-05
4.233608411e-05
4.233214665e-05
4.23282164e-05
4.232429342e-05
4.232037777e-05
4.23164695e-05
4.231256868e-05
4.230867534e-05
4.230478956e-05
4.230091138e-05
4.229704085e-05
4.229317802e-05
4.228932294e-05
4.228547565e-05
4.22816362e-05
4.227780464e-05
4.227398101e-05
4.227016534e-05
4.226635769e-05
4.226255809e-05
4.225876658e-05
4.225498319e-05
4.225120797e-05
4.224744095e-05
4.224368216e-05
4.223993163e-05
4.22361894e-05
4.22324555e-05
4.222872996e-05
4.22250128e-05
4.222130405e-05
4.221760374e-05
4.221391188e-05
4.221022852e-05
4.220655366e-05
4.220288732e-05
4.219922954e-05
4.219558032e-05
4.219193969e-05
4.218830766e-05
4.218468424e-05
4.218106947e-05
4.217746334e-05
4.217386588e-05
4.217027709e-05
4.2166697e-05
4.21631256e-05
4.215956291e-05
4.215600894e-05
4.21524637e-05
4.21489272e-05
4.214539944e-05
4.214188043e-05
4.213837019e-05
4.213486871e-05
4.2131376e-05
4.212789206e-05
4.21244169e-05
4.212095052e-05
4.211749293e-05
4.211404412e-05
4.211060409e-05
4.210717286e-05
4.21037504e-05
4.210033674e-05
4.209693186e-05
4.209353576e-05
4.209014845e-05
4.208676992e-05
4.208340016e-05
4.208003918e-05
4.207668697e-05
4.207334352e-05
4.207000884e-05
4.206668292e-05
4.206336575e-05
4.206005734e-05
4.205675766e-05
4.205346672e-05
4.205018451e-05
4.204691103e-05
4.204364626e-05
4.204039021e-05
4.203714286e-05
4.20339042e-05
4.203067424e-05
4.202745296e-05
4.202424035e-05
4.202103641e-05
4.201784113e-05
4.20146545e-05
4.201147652e-05
4.200830717e-05
4.200514646e-05
4.200199436e-05
4.199885088e-05
4.1995716e-05
4.199258972e-05
4.198947203e-05
4.198636292e-05
4.198326238e-05
4.198017042e-05
4.1977087e-05
4.197401214e-05
4.197094583e-05
4.196788804e-05
4.196483879e-05
4.196179806e-05
4.195876585e-05
4.195574214e-05
4.195272694e-05
4.194972023e-05
4.194672202e-05
4.19437323e-05
4.194075106e-05
4.19377783e-05
4.193481401e-05
4.19318582e-05
4.192891086e-05
4.192597198e-05
4.192304158e-05
4.192011963e-05
4.191720615e-05
4.191430114e-05
4.19114046e-05
4.190851652e-05
4.190563692e-05
4.19027658e-05
4.189990316e-05
4.189704901e-05
4.189420336e-05
4.189136621e-05
4.188853758e-05
4.188571747e-05
4.18829059e-05
4.188010288e-05
4.187730843e-05
4.187452256e-05
4.18717453e-05
4.186897665e-05
4.186621665e-05
4.186346531e-05
4.186072267e-05
4.185798874e-05
4.185526357e-05
4.185254718e-05
4.184983961e-05
4.18471409e-05
4.184445109e-05
4.184177022e-05
4.183909835e-05
4.183643551e-05
4.183378176e-05
4.183113717e-05
4.182850178e-05
4.182587568e-05
4.182325892e-05
4.182065158e-05
4.181805373e-05
4.181546547e-05
4.181288688e-05
4.181031804e-05
4.180775907e-05
4.180521007e-05
4.180267114e-05
4.180014242e-05
4.179762402e-05
4.179511607e-05
4.179261873e-05
4.179013213e-05
4.178765643e-05
4.178519181e-05
4.178273844e-05
4.17802965e-05
4.177786619e-05
4.177544771e-05
4.177304129e-05
4.177064716e-05
4.176826555e-05
4.176589673e-05
4.176354098e-05
4.176119856e-05
4.17588698e-05
4.1756555e-05
4.17542545e-05
4.175196866e-05
4.174969784e-05
4.174744245e-05
4.174520289e-05
4.17429796e-05
4.174077305e-05
4.17385837e-05
4.173641209e-05
4.173425874e-05
4.173212421e-05
4.173000911e-05
4.172791406e-05
4.172583972e-05
4.172378678e-05
4.172175599e-05
4.171974812e-05
4.171776397e-05
4.17158044e-05
4.171387031e-05
4.171196266e-05
4.171008245e-05
4.170823071e-05
4.170640858e-05
4.17046172e-05
4.170285781e-05
4.17011317e-05
4.169944024e-05
4.169778486e-05
4.169616707e-05
4.169458846e-05
4.169305072e-05
4.169155559e-05
4.169010496e-05
4.168870079e-05
4.168734514e-05
4.16860402e-05
4.168478826e-05
4.168359176e-05
4.168245329e-05
4.168137563e-05
4.168036174e-05
4.167941342e-05
4.167853332e-05
4.167772524e-05
4.167699284e-05
4.16763398e-05
4.167577001e-05
4.167528748e-05
4.167489637e-05
4.167460104e-05
4.167440602e-05
4.167431605e-05
4.167433612e-05
4.167447145e-05
4.167472755e-05
4.167511021e-05
4.167562556e-05
4.167628003e-05
4.167708044e-05
4.1678034e-05
4.167914834e-05
4.168043152e-05
4.16818921e-05
4.168353914e-05
4.168538226e-05
4.168743162e-05
4.168969804e-05
4.169219295e-05
4.169492853e-05
4.169791767e-05
4.170117409e-05
4.170471235e-05
4.170854794e-05
4.171269733e-05
4.171717805e-05
4.172200879e-05
4.172720944e-05
4.173280123e-05
4.173880682e-05
4.174525041e-05
4.175215787e-05
4.175955689e-05
4.176747713e-05
4.177595039e-05
4.178501083e-05
4.179469515e-05
4.180504285e-05
4.181609649e-05
4.182790204e-05
4.184050918e-05
4.185397171e-05
4.186834801e-05
4.188370155e-05
4.190010148e-05
4.191762333e-05
4.193634977e-05
4.19563716e-05
4.197778878e-05
4.200071175e-05
4.202526295e-05
4.205157861e-05
4.207981093e-05
4.21101306e-05
4.21427298e-05
4.217782557e-05
4.221566325e-05
4.225651921e-05
4.230070025e-05
4.234852992e-05
4.240031818e-05
4.24585921e-05
0.0003289337078
0.0002253097827
0.0001771741498
0.0001480483835
0.0001279276767
0.000112893889
0.0001010697252
9.1431588e-05
8.336892768e-05
7.649181394e-05
7.053782722e-05
6.532253927e-05
6.071175486e-05
5.660497161e-05
5.292502755e-05
4.961137841e-05
4.661560912e-05
4.389834705e-05
4.142709152e-05
3.917465105e-05
3.711799161e-05
3.523740115e-05
3.351585632e-05
3.193851694e-05
3.049234077e-05
2.916578671e-05
2.794858256e-05
2.683152931e-05
2.580635627e-05
2.486559635e-05
2.400248601e-05
2.321088229e-05
2.248519054e-05
2.182030305e-05
2.121154884e-05
2.065465046e-05
2.014568624e-05
1.968105615e-05
1.925745253e-05
1.887183423e-05
1.852140314e-05
1.820358317e-05
1.791600107e-05
1.765646932e-05
1.742297043e-05
1.721364287e-05
1.702676865e-05
1.686076193e-05
1.671415831e-05
1.658560475e-05
1.647385086e-05
1.637774103e-05
1.629620723e-05
1.622826223e-05
1.617299348e-05
1.612955762e-05
1.609717549e-05
1.607512762e-05
1.606274997e-05
1.60594302e-05
1.606460415e-05
1.607775264e-05
1.609839862e-05
1.612610443e-05
1.616046941e-05
1.62011276e-05
1.624774575e-05
1.630002135e-05
1.635768094e-05
1.642047847e-05
1.648819378e-05
1.656063119e-05
1.663761825e-05
1.671900456e-05
1.680466072e-05
1.68944773e-05
1.698836391e-05
1.708624826e-05
1.718807544e-05
1.729380711e-05
1.740342076e-05
1.751690907e-05
1.76342794e-05
1.775555327e-05
1.788076581e-05
1.800996529e-05
1.814321259e-05
1.828058094e-05
1.842215549e-05
1.8568033e-05
1.871832155e-05
1.88731403e-05
1.903261926e-05
1.919689908e-05
1.936613085e-05
1.954047599e-05
1.972010614e-05
1.990520313e-05
2.009595888e-05
2.029257519e-05
2.049526345e-05
2.070424508e-05
2.091974941e-05
2.114200254e-05
2.136895517e-05
2.159881468e-05
2.183155837e-05
2.206717379e-05
2.2305658e-05
2.254701578e-05
2.279125841e-05
2.303840249e-05
2.328846919e-05
2.354148337e-05
2.379747298e-05
2.405646834e-05
2.431850176e-05
2.458360698e-05
2.485181885e-05
2.512317278e-05
2.539770458e-05
2.567544996e-05
2.59564444e-05
2.624072269e-05
2.652831887e-05
2.681926592e-05
2.711359552e-05
2.741133783e-05
2.771252137e-05
2.801717281e-05
2.832531677e-05
2.863697561e-05
2.895216939e-05
2.927091561e-05
2.959322914e-05
2.991912196e-05
3.024860316e-05
3.058167874e-05
3.09183515e-05
3.125862089e-05
3.16024829e-05
3.194992999e-05
3.230095096e-05
3.265553086e-05
3.301365083e-05
3.337528813e-05
3.374041597e-05
3.410900351e-05
3.448101567e-05
3.485641325e-05
3.523515278e-05
3.561718659e-05
3.600246245e-05
3.639092372e-05
3.678250932e-05
3.717715399e-05
3.757478803e-05
3.797533748e-05
3.837872413e-05
3.87848656e-05
3.919367528e-05
3.96050626e-05
4.001893294e-05
4.043518789e-05
4.08537252e-05
4.127443915e-05
4.169722053e-05
4.212195686e-05
4.254853263e-05
4.297682937e-05
4.340672607e-05
4.383809925e-05
4.427082335e-05
4.470477082e-05
4.513981281e-05
4.55758198e-05
4.60126643e-05
4.645020409e-05
4.688828293e-05
4.732674139e-05
4.776542015e-05
4.820415978e-05
4.864280059e-05
4.908118272e-05
4.951914645e-05
4.995653235e-05
5.039318177e-05
5.082893695e-05
5.126364144e-05
5.169714026e-05
5.212928055e-05
5.255991145e-05
5.298888451e-05
5.341605392e-05
5.384127678e-05
5.426441347e-05
5.46853279e-05
5.510388775e-05
5.551996462e-05
5.593343444e-05
5.634417756e-05
5.675207903e-05
5.715702865e-05
5.755892135e-05
5.795765717e-05
5.835314153e-05
5.874528516e-05
5.913400446e-05
5.951922143e-05
5.990086381e-05
6.027886501e-05
6.065316433e-05
6.102370683e-05
6.139044341e-05
6.175333066e-05
6.211233101e-05
6.246741252e-05
6.281854892e-05
6.316571936e-05
6.350890848e-05
6.384810631e-05
6.418330798e-05
6.451451353e-05
6.484172765e-05
6.516495984e-05
6.548422413e-05
6.579953893e-05
6.61109267e-05
6.641841388e-05
6.672203061e-05
6.702181055e-05
6.731779055e-05
6.76100106e-05
6.789851343e-05
6.818334439e-05
6.846455112e-05
6.874218343e-05
6.9016293e-05
6.928693316e-05
6.955415852e-05
6.981802476e-05
7.007858778e-05
7.033590434e-05
7.059003466e-05
7.084104168e-05
7.108898713e-05
7.133393058e-05
7.157593058e-05
7.181504502e-05
7.205133092e-05
7.228484443e-05
7.251564068e-05
7.27437737e-05
7.296929634e-05
7.319226017e-05
7.34127154e-05
7.363071076e-05
7.384629351e-05
7.405950939e-05
7.42704025e-05
7.447901512e-05
7.468538797e-05
7.488956022e-05
7.50915694e-05
7.529145133e-05
7.54892402e-05
7.568496858e-05
7.587866745e-05
7.607036623e-05
7.626009287e-05
7.644787383e-05
7.663373422e-05
7.681769774e-05
7.699978684e-05
7.718002276e-05
7.735842553e-05
7.753501413e-05
7.770980645e-05
7.788281949e-05
7.805406935e-05
7.822357137e-05
7.839134014e-05
7.855738964e-05
7.872173329e-05
7.888438396e-05
7.904535399e-05
7.920465537e-05
7.936229973e-05
7.951829845e-05
7.967266266e-05
7.982540334e-05
7.997653137e-05
8.012605754e-05
8.027399261e-05
8.042034734e-05
8.056513254e-05
8.070835911e-05
8.085003808e-05
8.099018088e-05
8.112880032e-05
8.126591085e-05
8.140152652e-05
8.153566005e-05
8.166832374e-05
8.179953021e-05
8.19292925e-05
8.205762399e-05
8.21845384e-05
8.23100498e-05
8.243417256e-05
8.255692133e-05
8.267831106e-05
8.279835692e-05
8.291707433e-05
8.303447889e-05
8.31505864e-05
8.326541282e-05
8.33789743e-05
8.349128705e-05
8.360236744e-05
8.37122319e-05
8.382089694e-05
8.392837909e-05
8.403469492e-05
8.4139861e-05
8.424389389e-05
8.434681017e-05
8.444862635e-05
8.454935887e-05
8.464902406e-05
8.474763813e-05
8.484521714e-05
8.494177702e-05
8.503733354e-05
8.513190229e-05
8.522549868e-05
8.531813791e-05
8.540983497e-05
8.550060467e-05
8.559046154e-05
8.567941991e-05
8.576749387e-05
8.585469723e-05
8.594104352e-05
8.6026546e-05
8.611121773e-05
8.619507162e-05
8.627812056e-05
8.636037753e-05
8.644185513e-05
8.652256539e-05
8.660251985e-05
8.668172979e-05
8.676020626e-05
8.683796003e-05
8.691500165e-05
8.699134139e-05
8.706698934e-05
8.714195534e-05
8.7216249e-05
8.728987972e-05
8.736285669e-05
8.743518891e-05
8.750688515e-05
8.7577954e-05
8.764840384e-05
8.771824288e-05
8.778747916e-05
8.785612051e-05
8.792417461e-05
8.799164898e-05
8.805855099e-05
8.812488783e-05
8.819066657e-05
8.825589415e-05
8.832057736e-05
8.838472286e-05
8.844833722e-05
8.851142691e-05
8.857399832e-05
8.863605775e-05
8.869761148e-05
8.875866562e-05
8.881922615e-05
8.887929894e-05
8.893888972e-05
8.899800414e-05
8.905664778e-05
8.911482614e-05
8.917254466e-05
8.922980875e-05
8.928662374e-05
8.934299487e-05
8.939892734e-05
8.945442625e-05
8.950949667e-05
8.95641436e-05
8.961837198e-05
8.967218669e-05
8.97255926e-05
8.97785945e-05
8.983119711e-05
8.988340514e-05
8.99352232e-05
8.998665585e-05
9.003770761e-05
9.008838292e-05
9.013868621e-05
9.018862184e-05
9.023819411e-05
9.028740729e-05
9.033626557e-05
9.038477313e-05
9.043293407e-05
9.048075243e-05
9.052823225e-05
9.057537746e-05
9.062219197e-05
9.066867965e-05
9.071484428e-05
9.076068962e-05
9.080621936e-05
9.085143714e-05
9.089634655e-05
9.094095113e-05
9.098525438e-05
9.102925975e-05
9.107297062e-05
9.111639037e-05
9.115952229e-05
9.120236964e-05
9.124493563e-05
9.128722342e-05
9.132923612e-05
9.137097678e-05
9.141244843e-05
9.145365404e-05
9.149459653e-05
9.153527878e-05
9.157570362e-05
9.161587384e-05
9.16557922e-05
9.169546139e-05
9.173488409e-05
9.17740629e-05
9.181300041e-05
9.185169916e-05
9.189016164e-05
9.192839029e-05
9.196638754e-05
9.200415576e-05
9.204169729e-05
9.207901444e-05
9.211610951e-05
9.215298475e-05
9.218964238e-05
9.222608459e-05
9.226231353e-05
9.229833133e-05
9.233414007e-05
9.236974181e-05
9.240513858e-05
9.244033239e-05
9.247532521e-05
9.251011899e-05
9.254471566e-05
9.257911712e-05
9.261332528e-05
9.264734196e-05
9.268116901e-05
9.271480823e-05
9.274826138e-05
9.278153021e-05
9.281461646e-05
9.284752183e-05
9.2880248e-05
9.291279664e-05
9.294516939e-05
9.297736789e-05
9.300939373e-05
9.304124852e-05
9.307293382e-05
9.310445117e-05
9.313580213e-05
9.31669882e-05
9.319801089e-05
9.322887167e-05
9.325957202e-05
9.329011338e-05
9.332049718e-05
9.335072483e-05
9.338079772e-05
9.341071724e-05
9.344048474e-05
9.347010157e-05
9.349956906e-05
9.352888854e-05
9.35580613e-05
9.358708865e-05
9.361597186e-05
9.36447122e-05
9.367331093e-05
9.370176927e-05
9.373008847e-05
9.375826972e-05
9.378631423e-05
9.381422319e-05
9.384199775e-05
9.386963909e-05
9.389714835e-05
9.392452665e-05
9.395177512e-05
9.397889487e-05
9.400588699e-05
9.403275256e-05
9.405949266e-05
9.408610833e-05
9.411260062e-05
9.413897057e-05
9.416521921e-05
9.419134757e-05
9.421735665e-05
9.424324746e-05
9.426902097e-05
9.429467817e-05
9.432022003e-05
9.43456475e-05
9.437096154e-05
9.439616307e-05
9.442125303e-05
9.444623234e-05
9.44711019e-05
9.449586262e-05
9.45205154e-05
9.454506111e-05
9.456950066e-05
9.45938349e-05
9.461806472e-05
9.464219098e-05
9.466621454e-05
9.469013625e-05
9.471395695e-05
9.473767748e-05
9.476129867e-05
9.478482132e-05
9.480824626e-05
9.48315743e-05
9.485480623e-05
9.487794287e-05
9.490098501e-05
9.492393344e-05
9.494678895e-05
9.496955233e-05
9.499222436e-05
9.501480583e-05
9.503729752e-05
9.505970021e-05
9.508201466e-05
9.510424167e-05
9.512638201e-05
9.514843644e-05
9.517040575e-05
9.519229071e-05
9.521409209e-05
9.523581066e-05
9.52574472e-05
9.52790025e-05
9.530047732e-05
9.532187246e-05
9.53431887e-05
9.536442683e-05
9.538558766e-05
9.540667198e-05
9.542768062e-05
9.544861438e-05
9.546947409e-05
9.54902606e-05
9.551097473e-05
9.553161736e-05
9.555218935e-05
9.557269157e-05
9.559312493e-05
9.561349032e-05
9.563378867e-05
9.565402092e-05
9.567418801e-05
9.569429093e-05
9.571433065e-05
9.573430819e-05
9.575422458e-05
9.577408088e-05
9.579387819e-05
9.58136176e-05
9.583330028e-05
9.585292738e-05
9.587250011e-05
9.58920197e-05
9.591148744e-05
9.593090464e-05
9.595027264e-05
9.596959284e-05
9.598886668e-05
9.600809565e-05
9.60272813e-05
9.604642522e-05
9.606552906e-05
9.608459454e-05
9.610362343e-05
9.612261759e-05
9.614157893e-05
9.616050945e-05
9.617941122e-05
9.619828641e-05
9.621713727e-05
9.623596615e-05
9.62547755e-05
9.627356787e-05
9.629234594e-05
9.63111125e-05
9.632987045e-05
9.634862286e-05
9.63673729e-05
9.63861239e-05
9.640487937e-05
9.642364295e-05
9.644241848e-05
9.646120997e-05
9.648002164e-05
9.649885792e-05
9.651772344e-05
9.65366231e-05
9.655556204e-05
9.657454568e-05
9.659357971e-05
9.661267014e-05
9.663182332e-05
9.665104594e-05
9.667034506e-05
9.6689728e-05
9.670920269e-05
9.672877827e-05
9.674846565e-05
9.676827886e-05
9.678823813e-05
9.680807814e-05
9.682757078e-05
9.684667311e-05
9.686555652e-05
9.688421256e-05
9.690263356e-05
9.692081382e-05
9.693874612e-05
9.695642264e-05
9.697383565e-05
9.699097765e-05
9.700784099e-05
9.70244177e-05
9.704069933e-05
9.705667695e-05
9.707234121e-05
9.708768236e-05
9.710269025e-05
9.711735432e-05
9.713166349e-05
9.714560614e-05
9.715916998e-05
9.717234206e-05
9.718510875e-05
9.719745562e-05
9.720936749e-05
9.722082835e-05
9.723182129e-05
9.724232849e-05
9.725233113e-05
9.726180932e-05
9.72707421e-05
9.727910728e-05
9.728688148e-05
9.729403998e-05
9.730055665e-05
9.730640393e-05
9.731155269e-05
9.731597215e-05
9.731962979e-05
9.732249123e-05
9.732452014e-05
9.73256781e-05
9.732592448e-05
9.732521627e-05
9.732350801e-05
9.732075151e-05
9.731689578e-05
9.731188675e-05
9.730566711e-05
9.729817598e-05
9.728934868e-05
9.727911628e-05
9.726740522e-05
9.725413661e-05
9.723922544e-05
9.722257938e-05
9.720409698e-05
9.718366494e-05
9.71611537e-05
9.713641016e-05
9.710924504e-05
9.70794106e-05
9.704655956e-05
9.701016705e-05
9.696937716e-05
9.692268938e-05
9.686728447e-05
9.679755264e-05
9.66809625e-05
0.0006601285042
0.0005988651533
0.0005411850078
0.0004905131948
0.0004469021569
0.0004094516308
0.0003771257646
0.0003490009068
0.0003243180434
0.0003024713521
0.000282981891
0.0002654701964
0.0002496340456
0.0002352310549
0.0002220651543
0.0002099763108
0.0001988327452
0.0001885250007
0.0001789613981
0.0001700645278
0.0001617684362
0.0001540165806
0.0001467602071
0.0001399569252
0.0001335696107
0.0001275655503
0.0001219157409
0.0001165943105
0.0001115780472
0.000106846014
0.0001023792324
9.816042325e-05
9.417379543e-05
9.04048216e-05
8.684009942e-05
8.346723611e-05
8.027473973e-05
7.725191581e-05
7.438879327e-05
7.167606075e-05
6.910500905e-05
6.66674803e-05
6.435582367e-05
6.21628563e-05
6.008182584e-05
5.810637753e-05
5.623053984e-05
5.44487017e-05
5.275558196e-05
5.114621095e-05
4.961591111e-05
4.816028007e-05
4.677517611e-05
4.545669983e-05
4.420117938e-05
4.30051575e-05
4.186537949e-05
4.077878142e-05
3.974247905e-05
3.875375725e-05
3.781006009e-05
3.690898141e-05
3.604825597e-05
3.522575112e-05
3.443945886e-05
3.368748852e-05
3.296805979e-05
3.227949624e-05
3.162021939e-05
3.098874211e-05
3.038366269e-05
2.980365994e-05
2.924748875e-05
2.871397585e-05
2.820201533e-05
2.771056465e-05
2.723864092e-05
2.67853174e-05
2.634971996e-05
2.593102409e-05
2.552845169e-05
2.514126908e-05
2.476878455e-05
2.441034604e-05
2.406533853e-05
2.373318188e-05
2.341332903e-05
2.310526409e-05
2.280850077e-05
2.252258071e-05
2.224707211e-05
2.198156819e-05
2.172568607e-05
2.147906548e-05
2.124136777e-05
2.101227478e-05
2.079148794e-05
2.057872739e-05
2.0373731e-05
2.017625246e-05
1.998605986e-05
1.980293488e-05
1.962667046e-05
1.945709044e-05
1.929412167e-05
1.913773036e-05
1.898785863e-05
1.884444159e-05
1.870740737e-05
1.8576679e-05
1.845217612e-05
1.833381651e-05
1.822151731e-05
1.811519614e-05
1.801477207e-05
1.792016634e-05
1.783130301e-05
1.774810961e-05
1.767051756e-05
1.759846236e-05
1.753188388e-05
1.74707265e-05
1.741493933e-05
1.736447627e-05
1.731929612e-05
1.727936262e-05
1.724464449e-05
1.721511546e-05
1.719075425e-05
1.717154456e-05
1.715747507e-05
1.71485394e-05
1.714473608e-05
1.714606853e-05
1.715254502e-05
1.716417863e-05
1.718098725e-05
1.720299349e-05
1.723022471e-05
1.726271296e-05
1.730049496e-05
1.734361209e-05
1.739211036e-05
1.744604041e-05
1.750545748e-05
1.757042143e-05
1.764099671e-05
1.771725239e-05
1.779926212e-05
1.788710418e-05
1.798086142e-05
1.808062138e-05
1.818647626e-05
1.829852293e-05
1.8416863e-05
1.85416029e-05
1.867285346e-05
1.88107297e-05
1.89553524e-05
1.910684723e-05
1.926534476e-05
1.943098053e-05
1.960389509e-05
1.978423403e-05
1.9972148e-05
2.01677928e-05
2.037132942e-05
2.058292404e-05
2.080274811e-05
2.103097836e-05
2.126779687e-05
2.151339114e-05
2.176795413e-05
2.203168432e-05
2.230478614e-05
2.258746896e-05
2.28799313e-05
2.318021051e-05
2.348711871e-05
2.380066564e-05
2.41208592e-05
2.444770591e-05
2.478121036e-05
2.51213747e-05
2.546819836e-05
2.582167754e-05
2.618180512e-05
2.65485702e-05
2.692195794e-05
2.730194932e-05
2.768852117e-05
2.808164509e-05
2.848128776e-05
2.888741083e-05
2.929997057e-05
2.971891796e-05
3.014419841e-05
3.057575167e-05
3.101351168e-05
3.14574066e-05
3.190735868e-05
3.236328422e-05
3.282509347e-05
3.329269078e-05
3.376597445e-05
3.42448369e-05
3.472916446e-05
3.521883774e-05
3.571373151e-05
3.62137149e-05
3.671865136e-05
3.722839903e-05
3.77428107e-05
3.826173411e-05
3.878501196e-05
3.931248236e-05
3.984397886e-05
4.037933083e-05
4.091836349e-05
4.146089847e-05
4.200675386e-05
4.255574466e-05
4.310768302e-05
4.366237848e-05
4.421963853e-05
4.477926882e-05
4.534107356e-05
4.590485582e-05
4.647041805e-05
4.703756235e-05
4.760609093e-05
4.817580635e-05
4.874651214e-05
4.931801303e-05
4.989011551e-05
5.046262801e-05
5.103536158e-05
5.160813018e-05
5.218075114e-05
5.275304549e-05
5.332483867e-05
5.389596079e-05
5.44662467e-05
5.503552356e-05
5.560360498e-05
5.617030872e-05
5.673545778e-05
5.729888034e-05
5.786040997e-05
5.841988549e-05
5.897715124e-05
5.953205727e-05
6.008445927e-05
6.063421898e-05
6.118120416e-05
6.172528873e-05
6.226635271e-05
6.280428254e-05
6.333897099e-05
6.387031724e-05
6.439822679e-05
6.49226116e-05
6.544338989e-05
6.596048622e-05
6.64738313e-05
6.698336207e-05
6.748902158e-05
6.799075889e-05
6.848852889e-05
6.898229237e-05
6.947201573e-05
6.995767097e-05
7.043923534e-05
7.091669142e-05
7.139002682e-05
7.185923403e-05
7.232431022e-05
7.2785257e-05
7.324208036e-05
7.369479036e-05
7.4143401e-05
7.458792992e-05
7.502839837e-05
7.546483091e-05
7.589725518e-05
7.632570165e-05
7.675020352e-05
7.717079649e-05
7.758751859e-05
7.800040983e-05
7.840951222e-05
7.881486946e-05
7.92165268e-05
7.961453077e-05
8.000892914e-05
8.039977064e-05
8.078710475e-05
8.117098112e-05
8.155144872e-05
8.192855734e-05
8.230235991e-05
8.267291019e-05
8.30402605e-05
8.34044619e-05
8.37655647e-05
8.412361852e-05
8.447867214e-05
8.483077362e-05
8.517997013e-05
8.552630798e-05
8.58698324e-05
8.621058769e-05
8.654861708e-05
8.688396268e-05
8.721666541e-05
8.754676511e-05
8.78743004e-05
8.819930872e-05
8.852182625e-05
8.884188803e-05
8.915952787e-05
8.947477842e-05
8.978767109e-05
9.009823616e-05
9.040650281e-05
9.071249913e-05
9.101625209e-05
9.13177877e-05
9.161713086e-05
9.191430551e-05
9.220933461e-05
9.250224017e-05
9.27930434e-05
9.308176463e-05
9.336842346e-05
9.365303867e-05
9.393562841e-05
9.421621015e-05
9.449480078e-05
9.477141658e-05
9.504607337e-05
9.531878649e-05
9.558957086e-05
9.585844089e-05
9.612541066e-05
9.639049377e-05
9.665370352e-05
9.691505327e-05
9.717455704e-05
9.743222864e-05
9.768808112e-05
9.794212699e-05
9.81943787e-05
9.84448486e-05
9.869354906e-05
9.894049238e-05
9.918569089e-05
9.942915695e-05
9.967090292e-05
9.991094122e-05
0.0001001492843
0.0001003859446
0.0001006209348
0.0001008542675
0.0001010859553
0.0001013160109
0.0001015444473
0.0001017712772
0.0001019965137
0.0001022201697
0.0001024422582
0.0001026627925
0.0001028817856
0.0001030992509
0.0001033152016
0.0001035296511
0.0001037426126
0.0001039540996
0.0001041641255
0.0001043727036
0.0001045798474
0.0001047855706
0.0001049898867
0.0001051928091
0.0001053943512
0.0001055945264
0.0001057933482
0.0001059908296
0.000106186984
0.0001063818244
0.0001065753641
0.0001067676159
0.0001069585931
0.0001071483082
0.0001073367742
0.0001075240037
0.0001077100093
0.0001078948033
0.0001080783981
0.0001082608058
0.0001084420387
0.0001086221086
0.0001088010273
0.0001089788065
0.0001091554578