/*--------------------------------*- C++ -*----------------------------------*\
| =========                 |                                                 |
| \\      /  F ield         | OpenFOAM: The Open Source CFD Toolbox           |
|  \\    /   O peration     | Version:  2312                                  |
|   \\  /    A nd           | Website:  www.openfoam.com                      |
|    \\/     M anipulation  |                                                 |
\*---------------------------------------------------------------------------*/
FoamFile
{
    version     2.0;
    format      ascii;
    arch        "LSB;label=32;scalar=64";
    class       volScalarField;
    location    "351";
    object      p;
}
// * * * * * * * * * * * * * * * * * * * * * * * * * * * * * * * * * * * * * //

dimensions      [0 2 -2 0 0 0 0];

internalField   nonuniform List<scalar> 
63546
(
-0.2698704831
-0.2778728862
-0.2833836674
-0.2863533244
-0.2883954768
-0.2901811823
-0.2917801488
-0.2931832955
-0.2944272235
-0.2955622862
-0.2966232029
-0.2976315618
-0.298601932
-0.2995449867
-0.3004688731
-0.3013800332
-0.3022837299
-0.3031843765
-0.304085739
-0.3049909408
-0.3059023944
-0.3068215723
-0.307749424
-0.3086871052
-0.3096359224
-0.310597033
-0.3115712589
-0.3125590107
-0.3135604901
-0.314575788
-0.3156049565
-0.3166480368
-0.3177050424
-0.3187760129
-0.3198608946
-0.3209594926
-0.3220715182
-0.3231966495
-0.3243344984
-0.3254846106
-0.3266465182
-0.327819781
-0.3290039914
-0.3301987591
-0.3314036879
-0.3326183343
-0.3338421623
-0.3350746053
-0.3363151542
-0.3375633717
-0.3388188254
-0.3400810605
-0.3413496373
-0.3426241762
-0.3439043366
-0.3451897813
-0.346480167
-0.3477751522
-0.3490744028
-0.3503775922
-0.3516844003
-0.3529945144
-0.3543076311
-0.3556234587
-0.3569417186
-0.3582621478
-0.359584501
-0.3609085537
-0.3622341068
-0.3635609905
-0.3648890532
-0.3662181357
-0.3675480604
-0.3688786434
-0.3702097118
-0.3715411079
-0.3728726856
-0.3742043068
-0.3755358405
-0.3768671603
-0.3781981369
-0.3795286311
-0.3808585046
-0.3821876452
-0.3835159746
-0.3848434311
-0.3861699524
-0.3874954736
-0.3888199315
-0.3901432655
-0.3914654165
-0.3927863258
-0.3941059355
-0.3954241877
-0.3967410254
-0.3980563946
-0.3993702488
-0.4006825659
-0.4019931521
-0.4033014376
-0.4046070027
-0.4059098324
-0.4072094583
-0.4085039554
-0.4097934385
-0.4110817144
-0.4123707407
-0.4136594662
-0.4149468188
-0.4162323923
-0.4175160747
-0.4187977947
-0.4200774791
-0.4213550641
-0.4226304975
-0.423903733
-0.4251747264
-0.42644344
-0.4277098495
-0.4289739428
-0.4302357127
-0.4314951512
-0.432752248
-0.4340069925
-0.435259375
-0.4365093868
-0.4377570184
-0.4390022589
-0.4402450966
-0.4414855201
-0.4427235181
-0.4439590786
-0.445192191
-0.4464228456
-0.4476510329
-0.4488767432
-0.4500999671
-0.4513206955
-0.4525389192
-0.4537546293
-0.4549678164
-0.4561784723
-0.4573865893
-0.4585921606
-0.4597951796
-0.4609956406
-0.46219354
-0.4633888753
-0.464581646
-0.4657718548
-0.4669595104
-0.4681446015
-0.4693270263
-0.4705066956
-0.4716836864
-0.4728580997
-0.4740299509
-0.4751992286
-0.4763659096
-0.4775299768
-0.4786914223
-0.4798502427
-0.4810064349
-0.4821599953
-0.4833109221
-0.4844592157
-0.485604876
-0.486747899
-0.4878882756
-0.4890259904
-0.4901610189
-0.4912933233
-0.4924228432
-0.4935494826
-0.4946730936
-0.4957934658
-0.4969103812
-0.4980242239
-0.4991359084
-0.5002457928
-0.5013536118
-0.5024590936
-0.5035621556
-0.504662802
-0.505761043
-0.5068568855
-0.5079503407
-0.509041423
-0.5101301439
-0.5112165061
-0.5123005171
-0.5133822171
-0.5144616533
-0.5155388637
-0.5166138772
-0.5176867215
-0.5187574259
-0.519826021
-0.5208925383
-0.5219570099
-0.5230194685
-0.5240799468
-0.5251384774
-0.5261950924
-0.527249824
-0.5283027034
-0.5293537607
-0.5304030265
-0.5314505325
-0.5324963105
-0.533540392
-0.5345828082
-0.53562359
-0.5366627678
-0.537700371
-0.5387364291
-0.5397709713
-0.5408040268
-0.5418356242
-0.542865793
-0.5438945644
-0.5449219412
-0.5459479173
-0.5469725449
-0.5479958831
-0.5490179502
-0.5500387538
-0.5510583061
-0.5520766226
-0.5530937185
-0.554109608
-0.5551243044
-0.5561378193
-0.5571501606
-0.5581613315
-0.5591713293
-0.5601801441
-0.5611877568
-0.5621941355
-0.5631992321
-0.5642029812
-0.5652053089
-0.5662061679
-0.5672056415
-0.5682040104
-0.5692015638
-0.5701983847
-0.571194416
-0.5721896025
-0.5731839232
-0.5741773683
-0.5751699269
-0.576161589
-0.5771523481
-0.5781422011
-0.5791311472
-0.5801191882
-0.5811063283
-0.5820925754
-0.5830779176
-0.5840623238
-0.5850457938
-0.5860283626
-0.5870100558
-0.587990884
-0.5889708534
-0.5899499711
-0.5909282448
-0.5919056819
-0.5928822895
-0.5938580745
-0.5948330447
-0.5958072077
-0.5967805715
-0.5977531445
-0.5987249342
-0.5996959474
-0.6006661898
-0.6016356668
-0.6026043842
-0.6035723478
-0.6045395648
-0.6055060442
-0.606471796
-0.6074368294
-0.608401151
-0.6093647648
-0.6103276738
-0.6112898807
-0.612251386
-0.6132121881
-0.6141722824
-0.615131661
-0.6160903123
-0.6170482198
-0.6180053627
-0.6189617174
-0.619917262
-0.6208719883
-0.6218259251
-0.6227791696
-0.6237318653
-0.6246841055
-0.6256358928
-0.626587193
-0.6275379812
-0.6284882462
-0.6294379806
-0.6303871786
-0.6313358358
-0.6322839501
-0.633231521
-0.6341785494
-0.635125037
-0.6360709861
-0.6370163991
-0.6379612783
-0.6389056258
-0.6398494432
-0.6407927323
-0.6417354953
-0.6426777346
-0.6436194528
-0.6445606527
-0.6455013368
-0.6464415081
-0.6473811706
-0.6483203302
-0.649258992
-0.6501971593
-0.6511348342
-0.6520720178
-0.6530087112
-0.6539449152
-0.6548806298
-0.6558158545
-0.6567505877
-0.6576848276
-0.6586185715
-0.6595518166
-0.6604845595
-0.6614167963
-0.662348522
-0.6632797298
-0.6642104123
-0.665140564
-0.666070186
-0.6669992919
-0.6679279135
-0.6688560942
-0.6697838667
-0.6707112395
-0.6716382069
-0.6725647624
-0.6734909023
-0.6744166235
-0.6753419227
-0.6762667969
-0.6771912439
-0.678115263
-0.6790388536
-0.6799620162
-0.6808847512
-0.6818070594
-0.682728941
-0.6836503963
-0.6845714258
-0.6854920296
-0.6864122081
-0.6873319612
-0.6882512895
-0.689170193
-0.6900886716
-0.6910067249
-0.6919243523
-0.6928415534
-0.6937583274
-0.6946746744
-0.6955905958
-0.6965060948
-0.6974211768
-0.6983358497
-0.6992501212
-0.7001639969
-0.7010774789
-0.7019905673
-0.7029032611
-0.7038155592
-0.7047274609
-0.705638966
-0.706550076
-0.7074607931
-0.7083711189
-0.7092810548
-0.7101906015
-0.7110997601
-0.7120085316
-0.7129169169
-0.7138249174
-0.714732535
-0.7156397718
-0.7165466301
-0.7174531116
-0.718359218
-0.7192649502
-0.7201703087
-0.7210752943
-0.7219799079
-0.7228841505
-0.7237880234
-0.7246915277
-0.7255946645
-0.7264974351
-0.727399841
-0.7283018832
-0.7292035632
-0.7301048823
-0.7310058419
-0.7319064432
-0.7328066874
-0.7337065753
-0.7346061076
-0.7355052848
-0.7364041073
-0.7373025756
-0.7382006905
-0.7390984525
-0.7399958625
-0.7408929217
-0.7417896316
-0.7426859933
-0.7435820083
-0.7444776778
-0.7453730031
-0.7462679855
-0.7471626258
-0.7480569254
-0.7489508852
-0.7498445061
-0.7507377892
-0.7516307353
-0.7525233455
-0.753415621
-0.7543075628
-0.7551991719
-0.7560904493
-0.7569813958
-0.757872012
-0.7587622983
-0.7596522548
-0.7605418818
-0.7614311794
-0.7623201482
-0.7632087892
-0.764097104
-0.764985094
-0.7658727603
-0.7667601043
-0.7676471267
-0.7685338284
-0.7694202101
-0.7703062724
-0.7711920162
-0.7720774421
-0.7729625512
-0.7738473445
-0.7747318235
-0.7756159899
-0.776499845
-0.7773833903
-0.7782666271
-0.7791495563
-0.780032179
-0.7809144959
-0.7817965082
-0.782678217
-0.7835596231
-0.7844407276
-0.7853215314
-0.7862020355
-0.7870822407
-0.7879621478
-0.7888417577
-0.7897210716
-0.7906000905
-0.7914788155
-0.7923572479
-0.7932353893
-0.7941132408
-0.7949908038
-0.7958680794
-0.7967450688
-0.7976217728
-0.7984981925
-0.7993743289
-0.8002501833
-0.8011257568
-0.8020010509
-0.8028760668
-0.8037508061
-0.8046252705
-0.8054994614
-0.8063733802
-0.8072470285
-0.8081204081
-0.8089935206
-0.8098663676
-0.8107389514
-0.811611274
-0.8124833375
-0.8133551442
-0.8142266963
-0.8150979963
-0.8159690463
-0.8168398485
-0.8177104051
-0.8185807182
-0.8194507902
-0.8203206232
-0.82119022
-0.8220595833
-0.8229287161
-0.8237976213
-0.8246663022
-0.8255347621
-0.8264030047
-0.8272710338
-0.8281388533
-0.8290064676
-0.829873881
-0.8307410981
-0.8316081232
-0.8324749611
-0.8333416165
-0.8342080942
-0.8350743993
-0.8359405374
-0.8368065144
-0.8376723365
-0.8385380106
-0.8394035439
-0.840268944
-0.8411342183
-0.8419993747
-0.8428644213
-0.8437293667
-0.8445942195
-0.8454589891
-0.8463236853
-0.8471883186
-0.8480528999
-0.8489174404
-0.8497819521
-0.8506464473
-0.8515109389
-0.8523754401
-0.8532399651
-0.8541045285
-0.8549691461
-0.8558338343
-0.8566986105
-0.8575634931
-0.8584285014
-0.8592936556
-0.8601589768
-0.8610244872
-0.8618902103
-0.8627561703
-0.863622393
-0.8644889052
-0.8653557351
-0.8662229123
-0.8670904675
-0.8679584331
-0.8688268431
-0.8696957329
-0.8705651399
-0.8714351036
-0.8723056655
-0.8731768694
-0.8740487616
-0.8749213909
-0.8757948086
-0.8766690688
-0.8775442283
-0.8784203465
-0.8792974857
-0.8801757111
-0.8810550909
-0.8819356966
-0.8828176033
-0.8837008902
-0.8845856401
-0.8854719407
-0.8863598842
-0.8872495675
-0.8881410927
-0.8890345671
-0.8899301037
-0.8908278209
-0.8917278434
-0.8926303019
-0.893535334
-0.8944430842
-0.8953537043
-0.8962673539
-0.8971842008
-0.8981044213
-0.8990282008
-0.8999557338
-0.9008872251
-0.90182289
-0.9027629553
-0.903707659
-0.9046572522
-0.9056119987
-0.9065721765
-0.9075380779
-0.9085100103
-0.9094882974
-0.9104732797
-0.9114653151
-0.9124647801
-0.9134720711
-0.914487605
-0.9155118203
-0.9165451785
-0.9175881655
-0.9186412927
-0.919705099
-0.9207801517
-0.9218670489
-0.9229664212
-0.9240789334
-0.9252052869
-0.9263462213
-0.9275025178
-0.9286750008
-0.9298645393
-0.9310720839
-0.932298673
-0.9335453827
-0.9348133655
-0.9361040436
-0.937418581
-0.9387575728
-0.940122097
-0.9415134626
-0.9429328751
-0.9443819533
-0.9458624959
-0.9473762991
-0.9489251583
-0.9505108768
-0.9521353631
-0.9538006939
-0.9555090853
-0.9572628806
-0.959064558
-0.9609167435
-0.9628222251
-0.9647839655
-0.9668051144
-0.96888902
-0.9710392397
-0.9732595527
-0.9755539743
-0.9779267722
-0.9803824846
-0.9829259412
-0.9855622858
-0.9882970008
-0.9911359354
-0.9940853355
-0.9971518775
-1.000342704
-1.003665466
-1.007128365
-1.010740205
-1.01451045
-1.01844928
-1.022567669
-1.026877459
-1.031391447
-1.036123491
-1.041088617
-1.046303156
-1.051784886
-1.05755321
-1.063629346
-1.070036562
-1.076800439
-1.083949187
-1.091514014
-1.099529566
-1.10803445
-1.117071871
-1.126690404
-1.136944943
-1.147897881
-1.159620591
-1.172195321
-1.185717634
-1.200299633
-1.216074283
-1.233201344
-1.251875739
-1.272339704
-1.29490107
-1.319961928
-1.34806579
-1.379979483
-1.416815255
-1.460149041
-0.2805357914
-0.2834517027
-0.2864768765
-0.2885706502
-0.2901551438
-0.2915856187
-0.2929184367
-0.294138328
-0.295256824
-0.2962994521
-0.2972857706
-0.2982307788
-0.299147313
-0.3000434028
-0.3009246956
-0.3017959227
-0.3026612335
-0.3035242987
-0.3043883388
-0.3052561749
-0.3061304101
-0.3070123454
-0.3079022018
-0.3088009237
-0.3097099092
-0.31063046
-0.3115635986
-0.3125099224
-0.3134697151
-0.314443176
-0.315430467
-0.316431765
-0.3174472349
-0.318477295
-0.3195220469
-0.3205812073
-0.3216544599
-0.3227416059
-0.3238423595
-0.3249563238
-0.3260830952
-0.3272223113
-0.3283736411
-0.32953677
-0.3307113818
-0.3318970724
-0.3330931891
-0.3342990957
-0.3355144069
-0.3367388209
-0.3379719469
-0.3392133048
-0.3404624175
-0.3417189105
-0.342982443
-0.3442526526
-0.3455291593
-0.3468115836
-0.3480995533
-0.3493927011
-0.3506906648
-0.3519930882
-0.353299624
-0.3546099355
-0.3559236983
-0.3572406017
-0.3585603506
-0.3598826689
-0.3612073066
-0.3625340579
-0.3638627286
-0.3651930991
-0.3665249341
-0.3678580091
-0.3691921205
-0.3705270795
-0.3718627061
-0.3731988288
-0.3745352848
-0.3758719174
-0.3772085674
-0.3785450467
-0.3798811788
-0.38121683
-0.3825518982
-0.3838862879
-0.3852198995
-0.386552634
-0.3878843991
-0.3892151099
-0.3905446854
-0.3918730456
-0.3932001114
-0.3945258049
-0.3958500494
-0.3971727687
-0.3984938833
-0.3998132949
-0.4011308305
-0.4024462653
-0.4037594755
-0.4050704739
-0.4063793361
-0.4076860848
-0.4089906405
-0.4102930076
-0.4115933621
-0.4128917967
-0.4141882612
-0.415482706
-0.4167751176
-0.4180654812
-0.4193537602
-0.4206399047
-0.4219238636
-0.4232055846
-0.4244850094
-0.4257620836
-0.4270367728
-0.4283090617
-0.429578942
-0.4308464045
-0.4321114388
-0.4333740351
-0.4346341842
-0.4358918777
-0.4371471064
-0.4383998597
-0.4396501269
-0.4408978977
-0.4421431619
-0.4433859094
-0.4446261311
-0.4458638191
-0.4470989659
-0.4483315637
-0.4495616052
-0.4507890836
-0.452013992
-0.4532363241
-0.4544560733
-0.455673234
-0.4568878015
-0.4580997714
-0.4593091399
-0.4605159039
-0.4617200618
-0.4629216135
-0.4641205604
-0.4653169067
-0.4665106558
-0.4677017881
-0.4688902564
-0.4700760415
-0.4712591727
-0.4724396939
-0.4736176236
-0.4747929532
-0.4759656631
-0.4771357416
-0.4783031903
-0.4794680119
-0.4806302046
-0.481789764
-0.4829466908
-0.4841009899
-0.4852526641
-0.4864017105
-0.4875481216
-0.4886918845
-0.4898329795
-0.4909713767
-0.4921070271
-0.4932398465
-0.4943696718
-0.4954961235
-0.4966179941
-0.4977354092
-0.4988505421
-0.4999643963
-0.5010765792
-0.5021866725
-0.5032944988
-0.5043999935
-0.5055031197
-0.5066038537
-0.5077021863
-0.5087981193
-0.5098916557
-0.5109827902
-0.5120715275
-0.513157902
-0.5142419547
-0.5153237109
-0.5164031899
-0.5174804144
-0.5185554106
-0.5196282067
-0.520698831
-0.5217673128
-0.5228336823
-0.5238979697
-0.5249602053
-0.5260204199
-0.5270786439
-0.5281349062
-0.5291892346
-0.5302416576
-0.5312922054
-0.5323409084
-0.5333877965
-0.5344328996
-0.5354762475
-0.5365178696
-0.5375577948
-0.5385960518
-0.5396326697
-0.5406676774
-0.5417011027
-0.5427329722
-0.5437633078
-0.54479213
-0.545819469
-0.5468453723
-0.547869875
-0.5488929928
-0.5499147371
-0.5509351231
-0.5519541673
-0.5529718861
-0.5539882975
-0.5550034192
-0.5560172663
-0.5570298504
-0.5580411784
-0.5590512526
-0.5600600687
-0.5610676141
-0.5620738633
-0.5630787713
-0.5640822649
-0.5650842338
-0.5660845472
-0.5670833776
-0.5680814003
-0.5690790286
-0.5700760608
-0.571072234
-0.5720674499
-0.5730617004
-0.5740549903
-0.5750473227
-0.5760387026
-0.5770291386
-0.5780186412
-0.5790072211
-0.5799948885
-0.5809816542
-0.5819675271
-0.5829525079
-0.5839365898
-0.5849197611
-0.585902049
-0.5868834849
-0.5878640873
-0.5888438668
-0.5898228332
-0.590800997
-0.5917783676
-0.5927549538
-0.5937307642
-0.5947058074
-0.5956800921
-0.5966536269
-0.5976264207
-0.5985984811
-0.5995698147
-0.6005404265
-0.6015103212
-0.6024795033
-0.6034479776
-0.6044157502
-0.6053828302
-0.6063492276
-0.6073149519
-0.6082800066
-0.6092443925
-0.610208111
-0.6111711638
-0.6121335511
-0.6130952699
-0.6140563146
-0.6150166767
-0.6159763432
-0.6169352956
-0.6178935088
-0.6188509512
-0.6198075852
-0.6207633761
-0.6217183252
-0.6226725601
-0.623626271
-0.6245795289
-0.6255323066
-0.6264845774
-0.6274363361
-0.628387581
-0.6293383067
-0.6302885074
-0.6312381785
-0.6321873162
-0.633135917
-0.634083978
-0.6350314977
-0.635978475
-0.6369249101
-0.6378708034
-0.6388161553
-0.6397609655
-0.640705234
-0.6416489613
-0.6425921482
-0.6435347957
-0.6444769053
-0.6454184782
-0.6463595154
-0.6473000225
-0.6482400077
-0.6491794766
-0.6501184314
-0.6510568729
-0.6519948015
-0.6529322175
-0.6538691212
-0.6548055125
-0.6557413905
-0.6566767536
-0.6576116001
-0.6585459273
-0.6594797328
-0.6604130139
-0.6613457676
-0.6622779891
-0.663209671
-0.6641408036
-0.6650713773
-0.6660013884
-0.6669308488
-0.6678598018
-0.6687883142
-0.6697164306
-0.6706441537
-0.6715714689
-0.6724983647
-0.6734248338
-0.6743508702
-0.6752764689
-0.6762016265
-0.6771263406
-0.6780506101
-0.6789744347
-0.6798978153
-0.6808207539
-0.6817432526
-0.6826653129
-0.6835869364
-0.6845081242
-0.6854288775
-0.6863491971
-0.6872690837
-0.6881885384
-0.6891075621
-0.6900261553
-0.6909443182
-0.6918620511
-0.6927793536
-0.6936962253
-0.6946126663
-0.6955286776
-0.6964442626
-0.6973594278
-0.6982741831
-0.6991885384
-0.7001024997
-0.7010160678
-0.7019292417
-0.7028420205
-0.7037544031
-0.7046663886
-0.7055779775
-0.706489172
-0.707399975
-0.7083103884
-0.7092204133
-0.7101300509
-0.7110393023
-0.7119481687
-0.7128566512
-0.7137647511
-0.7146724707
-0.7155798123
-0.7164867784
-0.7173933711
-0.7182995919
-0.7192054415
-0.7201109202
-0.7210160285
-0.7219207673
-0.7228251379
-0.7237291412
-0.7246327782
-0.7255360502
-0.7264389583
-0.7273415039
-0.7282436881
-0.7291455122
-0.7300469776
-0.7309480859
-0.731848838
-0.7327492353
-0.7336492784
-0.7345489679
-0.7354483041
-0.7363472872
-0.7372459178
-0.7381441964
-0.7390421233
-0.7399396993
-0.7408369257
-0.7417338038
-0.7426303348
-0.74352652
-0.7444223606
-0.7453178577
-0.7462130124
-0.7471078257
-0.7480022986
-0.7488964321
-0.749790227
-0.750683684
-0.7515768043
-0.7524695887
-0.7533620384
-0.7542541542
-0.7551459372
-0.7560373884
-0.7569285085
-0.7578192982
-0.7587097574
-0.7595998865
-0.7604896852
-0.7613791537
-0.7622682921
-0.7631571018
-0.7640455844
-0.7649337416
-0.7658215746
-0.7667090846
-0.7675962725
-0.7684831389
-0.7693696846
-0.77025591
-0.771141816
-0.772027403
-0.772912672
-0.7737976241
-0.7746822608
-0.7755665837
-0.7764505945
-0.7773342947
-0.7782176855
-0.7791007678
-0.7799835424
-0.7808660102
-0.7817481723
-0.7826300298
-0.7835115837
-0.784392835
-0.7852737846
-0.7861544334
-0.7870347823
-0.7879148321
-0.7887945838
-0.7896740384
-0.790553197
-0.7914320607
-0.792310631
-0.7931889093
-0.7940668969
-0.7949445951
-0.7958220052
-0.796699128
-0.7975759646
-0.7984525159
-0.799328783
-0.8002047671
-0.8010804696
-0.8019558916
-0.8028310345
-0.8037059001
-0.8045804899
-0.8054548055
-0.8063288483
-0.80720262
-0.8080761223
-0.8089493567
-0.8098223252
-0.8106950298
-0.8115674726
-0.8124396558
-0.8133115817
-0.8141832526
-0.8150546709
-0.8159258387
-0.8167967583
-0.8176674318
-0.8185378615
-0.8194080495
-0.820277998
-0.8211477098
-0.8220171876
-0.8228864345
-0.8237554535
-0.8246242478
-0.8254928207
-0.8263611759
-0.8272293171
-0.8280972486
-0.8289649745
-0.8298324993
-0.8306998274
-0.8315669633
-0.8324339117
-0.8333006773
-0.8341672648
-0.8350336794
-0.8358999265
-0.8367660122
-0.8376319429
-0.8384977253
-0.839363367
-0.8402288753
-0.8410942579
-0.8419595224
-0.8428246771
-0.8436897301
-0.8445546905
-0.8454195673
-0.8462843706
-0.8471491107
-0.8480137986
-0.8488784457
-0.8497430637
-0.8506076651
-0.8514722627
-0.8523368697
-0.8532015003
-0.8540661693
-0.8549308923
-0.8557956858
-0.8566605672
-0.857525555
-0.8583906683
-0.8592559276
-0.8601213537
-0.8609869691
-0.8618527971
-0.862718862
-0.8635851896
-0.8644518067
-0.8653187416
-0.8661860238
-0.867053684
-0.8679217547
-0.8687902697
-0.8696592646
-0.8705287767
-0.8713988454
-0.8722695124
-0.8731408215
-0.874012819
-0.8748855537
-0.8757590771
-0.8766334434
-0.8775087091
-0.8783849339
-0.87926218
-0.8801405126
-0.8810199999
-0.8819007133
-0.882782728
-0.8836661231
-0.8845509817
-0.8854373915
-0.8863254446
-0.8872152382
-0.8881068743
-0.8890004603
-0.8898961091
-0.8907939395
-0.8916940758
-0.892596649
-0.8935017967
-0.8944096634
-0.895320401
-0.8962341692
-0.8971511359
-0.8980714773
-0.8989953789
-0.8999230354
-0.9008546515
-0.9017904428
-0.9027306358
-0.9036754689
-0.9046251932
-0.9055800725
-0.9065403851
-0.9075064232
-0.9084784946
-0.909456923
-0.9104420488
-0.9114342303
-0.9124338442
-0.9134412868
-0.9144569752
-0.9154813479
-0.9165148667
-0.9175580174
-0.9186113116
-0.9196752879
-0.9207505139
-0.9218375879
-0.9229371402
-0.9240498357
-0.9251763756
-0.9263174995
-0.9274739886
-0.9286466682
-0.9298364127
-0.9310441569
-0.9322708839
-0.9335176074
-0.9347853313
-0.936074901
-0.9373873767
-0.9387245519
-0.940088579
-0.9414804183
-0.9429005728
-0.9443504848
-0.9458317018
-0.9473459353
-0.9488950807
-0.9504810606
-0.9521058668
-0.9537715815
-0.9554803856
-0.9572345875
-0.9590366448
-0.9608891791
-0.9627949835
-0.9647570288
-0.9667784705
-0.9688626581
-0.9710131458
-0.9732337072
-0.9755283512
-0.9779013398
-0.9803572066
-0.9829007766
-0.9855371882
-0.9882719174
-0.9911108049
-0.9940600864
-0.9971264254
-1.00031695
-1.003639293
-1.007101637
-1.010712764
-1.014482109
-1.018419826
-1.022536851
-1.026844986
-1.031356982
-1.036086638
-1.041048917
-1.04626007
-1.051737781
-1.057501342
-1.063571838
-1.069972376
-1.076728343
-1.083867713
-1.091421404
-1.099423705
-1.10791278
-1.116931277
-1.126527066
-1.136754136
-1.147673708
-1.159355617
-1.171880048
-1.185339765
-1.199842983
-1.215517135
-1.232513894
-1.251015966
-1.271246424
-1.293481717
-1.318069956
-1.345456588
-1.376219239
-1.411111418
-1.45110972
-0.2853865591
-0.2861865602
-0.2877834852
-0.2894008052
-0.2908223409
-0.2921332056
-0.2933752935
-0.2945450041
-0.2956451123
-0.2966862799
-0.2976811083
-0.2986396738
-0.2995706649
-0.3004811775
-0.3013773896
-0.3022643117
-0.3031460461
-0.3040261054
-0.3049074923
-0.305792722
-0.3066838291
-0.3075824672
-0.3084899729
-0.3094074817
-0.310335987
-0.3112763691
-0.3122293815
-0.3131955292
-0.3141750678
-0.3151681372
-0.3161747892
-0.3171949664
-0.3182283419
-0.3192754003
-0.3203368531
-0.3214123624
-0.3225014882
-0.3236039569
-0.324719444
-0.32584748
-0.3269876263
-0.3281395107
-0.3293027895
-0.3304771692
-0.3316624831
-0.3328585711
-0.3340646268
-0.3352795581
-0.3365028986
-0.3377343664
-0.3389736001
-0.3402200733
-0.3414733503
-0.3427331284
-0.3439991252
-0.3452709895
-0.3465483464
-0.3478308332
-0.3491181003
-0.3504098049
-0.35170561
-0.3530051867
-0.3543082163
-0.3556143912
-0.3569234154
-0.3582350038
-0.3595488825
-0.3608647922
-0.3621825014
-0.3635019335
-0.364823022
-0.3661455326
-0.3674691595
-0.3687936488
-0.3701188049
-0.3714444586
-0.3727704529
-0.3740966426
-0.3754228959
-0.3767490898
-0.3780750986
-0.3794006251
-0.3807254387
-0.3820494981
-0.3833727953
-0.3846952783
-0.3860168631
-0.3873374547
-0.3886569645
-0.3899753169
-0.3912924396
-0.3926082581
-0.3939226964
-0.3952356792
-0.3965471314
-0.3978569766
-0.3991651337
-0.4004715085
-0.4017759802
-0.4030783993
-0.404378721
-0.4056771857
-0.4069744879
-0.4082725081
-0.4095712648
-0.4108674087
-0.4121592749
-0.413447742
-0.4147335744
-0.4160170281
-0.4172981938
-0.4185771129
-0.4198537901
-0.4211282137
-0.4224003711
-0.4236702397
-0.4249377609
-0.4262028927
-0.4274656282
-0.4287259727
-0.4299839217
-0.4312394631
-0.4324925852
-0.4337432782
-0.4349915331
-0.4362373409
-0.4374806921
-0.438721577
-0.4399599854
-0.441195908
-0.4424293355
-0.4436602592
-0.4448886707
-0.4461145627
-0.4473379281
-0.4485587595
-0.4497770501
-0.4509927933
-0.4522059827
-0.4534166123
-0.4546246764
-0.4558301697
-0.4570330878
-0.4582334266
-0.459431182
-0.4606263507
-0.4618189299
-0.463008918
-0.4641963159
-0.4653811346
-0.4665633839
-0.4677430382
-0.4689200417
-0.4700943536
-0.4712659809
-0.4724349511
-0.4736013193
-0.4747651117
-0.4759262997
-0.4770848617
-0.4782408105
-0.4793941574
-0.4805449029
-0.4816930372
-0.4828385664
-0.4839815062
-0.4851218673
-0.4862596529
-0.4873948631
-0.488527496
-0.4896575482
-0.4907850153
-0.4919098933
-0.4930321838
-0.4941519078
-0.4952691554
-0.4963840436
-0.4974965388
-0.4986065399
-0.4997140896
-0.5008192977
-0.5019222211
-0.5030228761
-0.5041212757
-0.505217439
-0.5063113883
-0.5074031496
-0.5084927605
-0.5095802571
-0.5106656258
-0.5117488567
-0.5128300057
-0.5139091411
-0.5149862849
-0.5160614513
-0.5171346618
-0.5182059433
-0.5192753239
-0.5203428315
-0.5214084945
-0.5224723423
-0.5235344045
-0.5245947115
-0.5256532947
-0.5267101846
-0.5277654059
-0.5288189817
-0.5298709377
-0.5309213022
-0.5319701035
-0.533017369
-0.5340631255
-0.5351073996
-0.5361502173
-0.5371916035
-0.5382315827
-0.5392701792
-0.5403074168
-0.5413433184
-0.5423779027
-0.5434111742
-0.5444431562
-0.5454738726
-0.5465033558
-0.5475316265
-0.5485586936
-0.5495845706
-0.5506092734
-0.5516328108
-0.5526551886
-0.553676421
-0.5546965241
-0.555715509
-0.5567333813
-0.5577501431
-0.5587657929
-0.5597803251
-0.5607937276
-0.5618059768
-0.5628170245
-0.5638267627
-0.5648349124
-0.565840591
-0.566843339
-0.5678448282
-0.5688464962
-0.5698480158
-0.5708489277
-0.5718490458
-0.57284831
-0.5738466835
-0.5748441347
-0.575840641
-0.5768361898
-0.5778307745
-0.5788243917
-0.5798170397
-0.5808087185
-0.5817994297
-0.582789172
-0.5837779242
-0.5847656683
-0.5857524252
-0.5867382292
-0.5877230895
-0.5887070049
-0.5896899781
-0.590672015
-0.5916531224
-0.5926333066
-0.5936125746
-0.5945909339
-0.595568392
-0.5965449576
-0.5975206401
-0.5984954471
-0.5994693836
-0.6004424535
-0.6014146609
-0.6023860096
-0.6033565029
-0.60432615
-0.6052949654
-0.6062629661
-0.6072301726
-0.6081965889
-0.6091622143
-0.6101270521
-0.6110911082
-0.6120543857
-0.6130168838
-0.6139786008
-0.6149395337
-0.6158996748
-0.6168590092
-0.6178175131
-0.6187751488
-0.6197318521
-0.6206875251
-0.6216421002
-0.6225960363
-0.6235498476
-0.624503406
-0.6254564539
-0.6264088911
-0.6273607115
-0.6283119201
-0.6292625165
-0.6302125032
-0.6311618863
-0.6321106724
-0.6330588675
-0.6340064765
-0.6349535051
-0.6358999594
-0.636845846
-0.6377911716
-0.6387359424
-0.6396801632
-0.6406238384
-0.6415669723
-0.6425095692
-0.6434516334
-0.6443931695
-0.6453341805
-0.6462746601
-0.6472146192
-0.6481540743
-0.649093036
-0.6500315083
-0.6509694935
-0.6519069939
-0.6528440118
-0.653780549
-0.6547166069
-0.6556521857
-0.656587285
-0.6575219033
-0.6584560387
-0.6593896896
-0.6603228551
-0.6612555336
-0.6621877208
-0.6631194064
-0.6640505725
-0.6649811959
-0.6659112538
-0.6668407404
-0.6677697245
-0.6686983145
-0.6696265468
-0.6705544008
-0.6714818611
-0.6724089268
-0.673335597
-0.6742618673
-0.6751877334
-0.6761131926
-0.6770382419
-0.6779628787
-0.6788871007
-0.6798109073
-0.6807342991
-0.6816572768
-0.6825798403
-0.6835019896
-0.6844237243
-0.6853450435
-0.6862659463
-0.6871864319
-0.6881064996
-0.689026149
-0.6899453792
-0.6908641893
-0.6917825778
-0.692700543
-0.693618082
-0.6945351921
-0.6954518714
-0.6963681205
-0.6972839466
-0.6981993649
-0.6991143917
-0.7000290336
-0.700943288
-0.7018571507
-0.7027706176
-0.7036836845
-0.7045963466
-0.7055086049
-0.7064204637
-0.7073319263
-0.7082429936
-0.7091536654
-0.7100639415
-0.7109738221
-0.7118833076
-0.712792398
-0.713701094
-0.7146093976
-0.7155173117
-0.7164248393
-0.7173319829
-0.718238744
-0.7191451227
-0.7200511188
-0.7209567331
-0.7218619666
-0.7227668204
-0.7236712954
-0.7245753926
-0.7254791131
-0.7263824581
-0.7272854288
-0.7281880265
-0.7290902526
-0.7299921087
-0.7308935966
-0.7317947179
-0.732695474
-0.7335958658
-0.7344958938
-0.7353955583
-0.7362948596
-0.7371937985
-0.7380923753
-0.7389905908
-0.7398884457
-0.7407859418
-0.7416830812
-0.7425798656
-0.7434762964
-0.7443723752
-0.7452681034
-0.7461634825
-0.7470585135
-0.747953198
-0.7488475371
-0.7497415318
-0.7506351833
-0.7515284928
-0.7524214616
-0.7533140909
-0.7542063822
-0.7550983367
-0.7559899559
-0.7568812409
-0.7577721924
-0.7586628107
-0.7595530959
-0.7604430478
-0.7613326661
-0.7622219508
-0.7631109037
-0.7639995272
-0.7648878233
-0.7657757935
-0.7666634389
-0.7675507606
-0.7684377593
-0.7693244358
-0.770210791
-0.7710968254
-0.7719825398
-0.7728679349
-0.773753012
-0.774637773
-0.77552222
-0.7764063552
-0.7772901802
-0.7781736962
-0.779056904
-0.7799398039
-0.7808223967
-0.7817046837
-0.7825866659
-0.7834683444
-0.7843497201
-0.7852307941
-0.7861115673
-0.7869920407
-0.787872215
-0.7887520913
-0.7896316708
-0.7905109545
-0.7913899437
-0.7922686399
-0.7931470447
-0.7940251594
-0.7949029854
-0.7957805237
-0.7966577753
-0.7975347409
-0.7984114215
-0.7992878183
-0.8001639322
-0.8010397646
-0.8019153166
-0.8027905896
-0.8036655852
-0.8045403052
-0.805414751
-0.8062889242
-0.8071628262
-0.8080364588
-0.8089098234
-0.809782922
-0.8106557564
-0.811528329
-0.8124006417
-0.8132726968
-0.8141444967
-0.8150160437
-0.8158873399
-0.8167583877
-0.817629189
-0.8184997459
-0.8193700601
-0.820240134
-0.8211099701
-0.8219795716
-0.8228489416
-0.823718083
-0.8245869991
-0.8254556932
-0.8263241688
-0.8271924299
-0.8280604804
-0.8289283245
-0.8297959667
-0.8306634113
-0.8315306626
-0.8323977252
-0.8332646037
-0.8341313027
-0.834997827
-0.8358641823
-0.8367303744
-0.8375964101
-0.8384622963
-0.8393280405
-0.8401936502
-0.841059133
-0.8419244963
-0.8427897481
-0.8436548966
-0.8445199506
-0.8453849193
-0.8462498128
-0.8471146413
-0.8479794157
-0.8488441474
-0.849708848
-0.8505735299
-0.8514382058
-0.852302889
-0.8531675933
-0.8540323335
-0.8548971252
-0.8557619849
-0.8566269298
-0.8574919783
-0.8583571498
-0.8592224642
-0.8600879425
-0.8609536068
-0.8618194804
-0.8626855875
-0.8635519536
-0.8644186056
-0.8652855716
-0.8661528808
-0.8670205639
-0.8678886529
-0.8687571816
-0.8696261853
-0.870495701
-0.871365768
-0.8722364277
-0.8731077239
-0.8739797026
-0.8748524125
-0.8757259048
-0.8766002335
-0.877475455
-0.8783516284
-0.8792288155
-0.8801070813
-0.8809864932
-0.8818671223
-0.8827490434
-0.8836323352
-0.8845170803
-0.8854033661
-0.8862912844
-0.8871809316
-0.8880724094
-0.8889658244
-0.8898612889
-0.890758921
-0.8916588444
-0.8925611892
-0.8934660923
-0.8943736975
-0.8952841558
-0.896197626
-0.897114275
-0.8980342782
-0.8989578198
-0.8998850935
-0.9008163028
-0.9017516619
-0.9026913962
-0.9036357427
-0.9045849508
-0.9055392831
-0.906499016
-0.9074644404
-0.9084358622
-0.9094136032
-0.9103980021
-0.9113894148
-0.9123882158
-0.9133947992
-0.9144095795
-0.9154329926
-0.9164654973
-0.9175075763
-0.9185597379
-0.9196225172
-0.9206964779
-0.9217822144
-0.922880353
-0.9239915539
-0.9251165131
-0.9262559649
-0.9274106841
-0.9285814885
-0.9297692424
-0.9309748601
-0.9321993049
-0.9334435689
-0.9347086659
-0.9359956321
-0.9373056329
-0.9386399231
-0.9399992775
-0.9413852854
-0.9428005057
-0.9442465911
-0.9457243945
-0.9472351378
-0.9487804493
-0.9503620638
-0.9519820805
-0.9536426814
-0.9553460974
-0.9570946326
-0.9588907002
-0.9607368706
-0.9626358957
-0.9645907198
-0.966604481
-0.96868051
-0.9708223344
-0.973033693
-0.9753185541
-0.9776811349
-0.980125921
-0.9826576862
-0.9852815131
-0.9880028166
-0.99082737