cellI,x,y,z,S,epsilon,k,nut
41054,1.5,0.01070175438,0.0007,1.964912278e-06,0.02329431484,0.006343541026,0.0001554733922
41411,1.5,0.01210526315,0.0007,1.964912278e-06,0.02165836904,0.006281678259,0.0001639714122
41768,1.5,0.01350877193,0.0007,1.964912292e-06,0.02013222238,0.006165451321,0.0001699341004
42125,1.5,0.0149122807,0.0007,1.964912278e-06,0.01861425071,0.005995595242,0.0001738047186
42482,1.5,0.01631578948,0.0007,1.964912278e-06,0.01705402511,0.005775154258,0.0001760122073
42839,1.5,0.01771929825,0.0007,1.964912278e-06,0.01543736966,0.005509727641,0.0001769821506
43196,1.5,0.01912280701,0.0007,1.964912278e-06,0.01377796836,0.00520765446,0.0001771501998
43553,1.5,0.02052631579,0.0007,1.964912292e-06,0.01211020935,0.004879878555,0.0001769737634
43910,1.5,0.02192982456,0.0007,1.964912278e-06,0.01048171735,0.004539424464,0.0001769341455
44267,1.5,0.02333333334,0.0007,1.964912278e-06,0.008944659317,0.004200387442,0.0001775241363
44624,1.5,0.02473684211,0.0007,1.964912278e-06,0.007546365252,0.003876439568,0.0001792135008
44981,1.5,0.02614035087,0.0007,1.964912278e-06,0.0063210653,0.003579150254,0.0001823946493
45338,1.5,0.02754385965,0.0007,1.964912292e-06,0.005284894253,0.003316525456,0.0001873151385
45695,1.5,0.02894736842,0.0007,1.964912278e-06,0.004435717926,0.003092339184,0.0001940228304
46052,1.5,0.0303508772,0.0007,1.964912278e-06,0.003757182949,0.002906396943,0.0002023438563
46409,1.5,0.03175438596,0.0007,1.964912278e-06,0.003224931158,0.002755604441,0.0002119121282
46766,1.5,0.03315789474,0.0007,1.964912278e-06,0.002812397181,0.002635264141,0.0002222358714
47123,1.5,0.0345614035,0.0007,1.964912278e-06,0.002494813757,0.002540232574,0.0002327830428
47480,1.5,0.03596491228,0.0007,1.964912292e-06,0.002251152255,0.002465650084,0.000243052743
47837,1.5,0.03736842106,0.0007,1.964912278e-06,0.002064600311,0.002407323821,0.0002526245469
48194,1.5,0.03877192983,0.0007,1.964912278e-06,0.00192220835,0.002361817119,0.0002611767914
48551,1.5,0.04017543859,0.0007,1.964912278e-06,0.001814242701,0.002326418669,0.0002684867598
48908,1.5,0.04157894736,0.0007,1.964912278e-06,0.00173350222,0.002299033687,0.0002744155877
49265,1.5,0.04298245614,0.0007,1.964912292e-06,0.001674735874,0.002278079618,0.0002788906682
49622,1.5,0.04438596492,0.0007,1.964912278e-06,0.001634183097,0.002262383424,0.00028188646
49979,1.5,0.04578947368,0.0007,1.964912278e-06,0.001609234943,0.002251103861,0.0002834093153
50336,1.5,0.04719298246,0.0007,1.964912278e-06,0.001598202281,0.002243676759,0.0002834858212
50693,1.5,0.04859649123,0.0007,1.964912278e-06,0.001600151052,0.002239766831,0.0002821546069
51050,1.5,0.05,0.0007,1.964912292e-06,0.001614787751,0.002239227568,0.0002794624923
51407,1.5,0.05140350877,0.0007,1.964912278e-06,0.001642450931,0.002242106435,0.0002754625452
51764,1.5,0.05280701754,0.0007,1.964912278e-06,0.001684109765,0.002248638867,0.0002702162991
52121,1.5,0.05421052632,0.0007,1.964912278e-06,0.001741415115,0.002259244724,0.0002637951176
52478,1.5,0.05561403508,0.0007,1.964912278e-06,0.001816810366,0.002274554467,0.0002562864186
52835,1.5,0.05701754386,0.0007,1.964912292e-06,0.001913686657,0.002295420325,0.0002477970468
53192,1.5,0.05842105263,0.0007,1.964912278e-06,0.002036611967,0.002322958606,0.0002384608897
53549,1.5,0.0598245614,0.0007,1.964912278e-06,0.002191614343,0.002358567609,0.0002284415169
53906,1.5,0.06122807018,0.0007,1.964912278e-06,0.002386542992,0.002403967453,0.0002179367219
54263,1.5,0.06263157895,0.0007,1.964912278e-06,0.002631459991,0.002461192778,0.0002071748353
54620,1.5,0.06403508772,0.0007,1.964912292e-06,0.002939039584,0.002532572308,0.0001964087275
54977,1.5,0.0654385965,0.0007,1.964912278e-06,0.003324850583,0.002620611567,0.0001858984136
55334,1.5,0.06684210527,0.0007,1.964912278e-06,0.003807401948,0.002727799063,0.0001758889407
55691,1.5,0.06824561403,0.0007,1.964912278e-06,0.004407761561,0.002856266838,0.00016657966
56048,1.5,0.0696491228,0.0007,1.964912278e-06,0.005148669932,0.003007362479,0.0001580953193
56405,1.5,0.07105263157,0.0007,1.964912278e-06,0.006053258746,0.003181161353,0.0001504612504
56762,1.5,0.07245614035,0.0007,1.964912292e-06,0.00714388914,0.003376075352,0.000143592602
57119,1.5,0.07385964912,0.0007,1.964912278e-06,0.00844207877,0.003588674646,0.0001372970741
57476,1.5,0.07526315789,0.0007,1.964912278e-06,0.009970863626,0.003813846632,0.0001312913706
57833,1.5,0.07666666666,0.0007,1.964912278e-06,0.01176126071,0.004045283859,0.00012522373
58190,1.5,0.07807017543,0.0007,1.964912278e-06,0.01386503315,0.004276230439,0.0001186981085
58547,1.5,0.07947368421,0.0007,1.964912292e-06,0.01637773985,0.004500373557,0.0001112975667
58904,1.5,0.08087719298,0.0007,1.964912278e-06,0.01948305889,0.004712836727,0.00010260066
59261,1.5,0.08228070175,0.0007,1.964912278e-06,0.02354123228,0.00491104804,9.22065307e-05
59618,1.5,0.08368421052,0.0007,1.964912278e-06,0.02929451765,0.005095836869,7.977874337e-05
59975,1.5,0.08508771929,0.0007,1.964912278e-06,0.03843238781,0.005273602972,6.512683937e-05
60332,1.5,0.08649122807,0.0007,1.964912292e-06,0.05549718035,0.005461278511,4.836823511e-05
60689,1.5,0.08789473685,0.0007,1.964912278e-06,0.09657564571,0.005696650093,3.024224155e-05
61046,1.5,0.08929824561,0.0007,1.964912278e-06,0.2505281895,0.005773350733,1.197407002e-05
61403,1.5,0.0007142857145,0.0007,2.000000001e-06,0.2340078653,0.00558211844,1.198423036e-05
61760,1.5,0.002142857143,0.0007,1.999999999e-06,0.08793907256,0.005790328331,3.431365727e-05
62117,1.5,0.003571428571,0.0007,2.000000001e-06,0.05225513378,0.00593366639,6.064008424e-05
62474,1.5,0.005,0.0007,1.999999999e-06,0.03853644921,0.006088147549,8.656476453e-05
62831,1.5,0.006428571429,0.0007,2.000000001e-06,0.03177287276,0.006218343965,0.0001095306105
63188,1.5,0.007857142857,0.0007,1.999999999e-06,0.02784528291,0.006309000528,0.0001286506552
63545,1.5,0.009285714285,0.0007,2.000000001e-06,0.02523909715,0.006352323354,0.0001438910852
