cellI,x,y,z,S,epsilon,k,nut
39984,0.000700280112,0.09,0.0007,1.960784314e-06,0.4014533076,0.01134361478,1.410104676e-06
39985,0.002100840336,0.09,0.0007,1.960784314e-06,0.4195393809,0.01164540277,1.439603696e-06
39986,0.00350140056,0.09,0.0007,1.960784314e-06,0.436983162,0.01193142624,1.467209283e-06
39987,0.004901960784,0.09,0.0007,1.960784314e-06,0.4538080358,0.01220286674,1.493101762e-06
39988,0.006302521008,0.09,0.0007,1.960784314e-06,0.4700158674,0.01246044637,1.517406186e-06
39989,0.007703081232,0.09,0.0007,1.960784315e-06,0.4856014854,0.01270469579,1.540221204e-06
39990,0.009103641457,0.09,0.0007,1.960784314e-06,0.500556024,0.01293602459,1.561627545e-06
39991,0.01050420168,0.09,0.0007,1.960784309e-06,0.5148701946,0.01315478309,1.581695021e-06
39992,0.01190476191,0.09,0.0007,1.960784322e-06,0.5285362989,0.01336129957,1.600486794e-06
39993,0.01330532213,0.09,0.0007,1.960784308e-06,0.5415489832,0.01355589575,1.618061382e-06
39994,0.01470588235,0.09,0.0007,1.960784308e-06,0.5539054437,0.01373889285,1.634473693e-06
39995,0.01610644257,0.09,0.0007,1.960784322e-06,0.5656054425,0.01391061438,1.649775664e-06
39996,0.0175070028,0.09,0.0007,1.960784308e-06,0.5766512671,0.01407138784,1.664016752e-06
39997,0.01890756302,0.09,0.0007,1.960784322e-06,0.5870476765,0.01422154601,1.677244346e-06
39998,0.02030812325,0.09,0.0007,1.960784308e-06,0.5968017987,0.01436142741,1.689504061e-06
39999,0.02170868347,0.09,0.0007,1.960784322e-06,0.6059229538,0.01449137559,1.700839909e-06
40000,0.0231092437,0.09,0.0007,1.960784308e-06,0.6144224439,0.01461173801,1.7112944e-06
40001,0.02450980392,0.09,0.0007,1.960784308e-06,0.6223133321,0.01472286458,1.72090861e-06
40002,0.02591036414,0.09,0.0007,1.960784322e-06,0.6296102188,0.01482510626,1.729722225e-06
40003,0.02731092437,0.09,0.0007,1.960784308e-06,0.6363290213,0.01491881363,1.737773575e-06
40004,0.02871148459,0.09,0.0007,1.960784322e-06,0.6424867671,0.01500433557,1.74509966e-06
40005,0.03011204482,0.09,0.0007,1.960784308e-06,0.6481014069,0.01508201822,1.751736191e-06
40006,0.03151260504,0.09,0.0007,1.960784308e-06,0.6531916395,0.01515220394,1.75771762e-06
40007,0.03291316527,0.09,0.0007,1.960784322e-06,0.6577767438,0.01521523045,1.763077168e-06
40008,0.03431372549,0.09,0.0007,1.960784308e-06,0.6618764185,0.01527142981,1.767846841e-06
40009,0.03571428572,0.09,0.0007,1.960784322e-06,0.6655106365,0.01532112769,1.772057452e-06
40010,0.03711484594,0.09,0.0007,1.960784308e-06,0.6686995104,0.01536464265,1.775738637e-06
40011,0.03851540616,0.09,0.0007,1.960784308e-06,0.6714631668,0.0154022854,1.778918873e-06
40012,0.03991596639,0.09,0.0007,1.960784322e-06,0.673821631,0.01543435826,1.781625487e-06
40013,0.04131652661,0.09,0.0007,1.960784308e-06,0.6757947285,0.01546115466,1.783884676e-06
40014,0.04271708684,0.09,0.0007,1.960784322e-06,0.6774020045,0.01548295884,1.785721536e-06
40015,0.04411764706,0.09,0.0007,1.960784308e-06,0.6786626576,0.01550004571,1.787160094e-06
40016,0.04551820728,0.09,0.0007,1.960784308e-06,0.6795954813,0.0155126807,1.788223336e-06
40017,0.0469187675,0.09,0.0007,1.960784322e-06,0.6802188118,0.01552111961,1.788933236e-06
40018,0.04831932773,0.09,0.0007,1.960784308e-06,0.6805504838,0.01552560862,1.789310783e-06
40019,0.04971988796,0.09,0.0007,1.960784322e-06,0.6806077962,0.01552638422,1.789376009e-06
40020,0.05112044818,0.09,0.0007,1.960784308e-06,0.6804074837,0.0155236733,1.78914802e-06
40021,0.0525210084,0.09,0.0007,1.960784322e-06,0.6799656966,0.01551769322,1.788645023e-06
40022,0.05392156863,0.09,0.0007,1.960784308e-06,0.6792979848,0.01550865193,1.787884359e-06
40023,0.05532212885,0.09,0.0007,1.960784308e-06,0.6784192883,0.01549674812,1.786882528e-06
40024,0.05672268907,0.09,0.0007,1.960784322e-06,0.6773439359,0.01548217146,1.785655227e-06
40025,0.0581232493,0.09,0.0007,1.960784308e-06,0.676085647,0.01546510283,1.784217379e-06
40026,0.05952380952,0.09,0.0007,1.960784322e-06,0.6746575357,0.01544571456,1.782583168e-06
40027,0.06092436975,0.09,0.0007,1.960784308e-06,0.6730721159,0.01542417064,1.780766062e-06
40028,0.06232492997,0.09,0.0007,1.960784308e-06,0.67134131,0.01540062699,1.778778845e-06
40029,0.06372549019,0.09,0.0007,1.960784322e-06,0.6694764609,0.01537523173,1.776633645e-06
40030,0.06512605042,0.09,0.0007,1.960784308e-06,0.6674883465,0.01534812545,1.774341962e-06
40031,0.06652661065,0.09,0.0007,1.960784322e-06,0.6653871959,0.0153194415,1.771914702e-06
40032,0.06792717087,0.09,0.0007,1.960784308e-06,0.6631827069,0.01528930631,1.769362197e-06
40033,0.06932773109,0.09,0.0007,1.960784308e-06,0.660884062,0.01525783964,1.766694238e-06
40034,0.07072829131,0.09,0.0007,1.960784322e-06,0.6584999441,0.01522515481,1.763920092e-06
40035,0.07212885154,0.09,0.0007,1.960784308e-06,0.656038555,0.01519135899,1.761048528e-06
40036,0.07352941176,0.09,0.0007,1.960784322e-06,0.653507634,0.01515655347,1.758087844e-06
40037,0.07492997199,0.09,0.0007,1.960784308e-06,0.6509144777,0.01512083392,1.755045886e-06
40038,0.07633053221,0.09,0.0007,1.960784308e-06,0.6482659591,0.01508429069,1.751930074e-06
40039,0.07773109243,0.09,0.0007,1.960784322e-06,0.6455685465,0.01504700901,1.748747421e-06
40040,0.07913165266,0.09,0.0007,1.960784308e-06,0.6428283225,0.01500906928,1.745504556e-06
40041,0.08053221288,0.09,0.0007,1.960784322e-06,0.6400510022,0.01497054731,1.742207741e-06
40042,0.08193277311,0.09,0.0007,1.960784308e-06,0.6372419523,0.01493151453,1.738862895e-06
40043,0.08333333333,0.09,0.0007,1.960784322e-06,0.6344062077,0.01489203824,1.735475609e-06
40044,0.08473389356,0.09,0.0007,1.960784308e-06,0.6315484897,0.01485218184,1.732051162e-06
40045,0.08613445378,0.09,0.0007,1.960784308e-06,0.6286732211,0.01481200499,1.728594543e-06
40046,0.08753501401,0.09,0.0007,1.960784322e-06,0.6257845424,0.01477156382,1.72511046e-06
40047,0.08893557423,0.09,0.0007,1.960784308e-06,0.6228863273,0.01473091116,1.721603359e-06
40048,0.09033613445,0.09,0.0007,1.960784322e-06,0.6199821979,0.01469009666,1.718077439e-06
40049,0.09173669468,0.09,0.0007,1.960784308e-06,0.6170755391,0.01464916705,1.714536665e-06
40050,0.0931372549,0.09,0.0007,1.960784308e-06,0.6141695124,0.01460816623,1.710984781e-06
40051,0.09453781513,0.09,0.0007,1.960784322e-06,0.611267069,0.01456713549,1.707425323e-06
40052,0.09593837535,0.09,0.0007,1.960784308e-06,0.608370962,0.01452611363,1.703861633e-06
40053,0.09733893557,0.09,0.0007,1.960784322e-06,0.6054837586,0.01448513711,1.700296866e-06
40054,0.0987394958,0.09,0.0007,1.960784308e-06,0.6026078513,0.0144442402,1.696734004e-06
40055,0.100140056,0.09,0.0007,1.960784266e-06,0.599745469,0.0144034551,1.693175867e-06
40056,0.1015406162,0.09,0.0007,1.96078442e-06,0.5968986867,0.01436281207,1.68962512e-06
40057,0.1029411765,0.09,0.0007,1.96078428e-06,0.594069436,0.01432233956,1.686084283e-06
40058,0.1043417367,0.09,0.0007,1.96078428e-06,0.5912595141,0.01428206431,1.682555743e-06
40059,0.1057422969,0.09,0.0007,1.96078428e-06,0.5884705974,0.01424201151,1.679041764e-06
40060,0.1071428571,0.09,0.0007,1.96078442e-06,0.5857042412,0.01420220484,1.675544487e-06
40061,0.1085434174,0.09,0.0007,1.96078428e-06,0.582961886,0.01416266647,1.672065934e-06
40062,0.1099439776,0.09,0.0007,1.96078428e-06,0.5802448706,0.01412341727,1.668608024e-06
40063,0.1113445378,0.09,0.0007,1.96078428e-06,0.5775544379,0.01408447688,1.665172575e-06
40064,0.112745098,0.09,0.0007,1.96078442e-06,0.5748917405,0.01404586378,1.661761313e-06
40065,0.1141456583,0.09,0.0007,1.96078428e-06,0.5722578481,0.01400759535,1.658375878e-06
40066,0.1155462185,0.09,0.0007,1.96078428e-06,0.5696537525,0.01396968796,1.655017825e-06
40067,0.1169467787,0.09,0.0007,1.96078428e-06,0.5670803735,0.01393215704,1.651688635e-06
40068,0.1183473389,0.09,0.0007,1.96078428e-06,0.5645385639,0.01389501716,1.648389719e-06
40069,0.1197478991,0.09,0.0007,1.96078442e-06,0.5620291137,0.01385828202,1.645122417e-06
40070,0.1211484594,0.09,0.0007,1.96078428e-06,0.5595527545,0.01382196456,1.641888008e-06
40071,0.1225490196,0.09,0.0007,1.96078428e-06,0.5571101618,0.01378607697,1.63868771e-06
40072,0.1239495798,0.09,0.0007,1.96078428e-06,0.5547019565,0.01375063071,1.635522677e-06
40073,0.1253501401,0.09,0.0007,1.96078442e-06,0.5523287026,0.01371563644,1.632394001e-06
40074,0.1267507003,0.09,0.0007,1.96078428e-06,0.5499908949,0.01368110384,1.629302688e-06
40075,0.1281512605,0.09,0.0007,1.96078428e-06,0.5476888241,0.01364703963,1.62624948e-06
40076,0.1295518207,0.09,0.0007,1.96078428e-06,0.5454219056,0.01361343753,1.623233957e-06
40077,0.130952381,0.09,0.0007,1.96078442e-06,0.5431896542,0.0135802927,1.620255823e-06
40078,0.1323529412,0.09,0.0007,1.96078428e-06,0.5409916126,0.01354760062,1.617314808e-06
40079,0.1337535014,0.09,0.0007,1.96078428e-06,0.5388273455,0.01351535707,1.614410664e-06
40080,0.1351540616,0.09,0.0007,1.96078428e-06,0.536696445,0.01348355814,1.611543173e-06
40081,0.1365546219,0.09,0.0007,1.96078442e-06,0.5345985295,0.01345220031,1.608712143e-06
40082,0.1379551821,0.09,0.0007,1.96078428e-06,0.5325332413,0.01342128032,1.60591741e-06
40083,0.1393557423,0.09,0.0007,1.96078428e-06,0.5305002476,0.01339079527,1.603158835e-06
40084,0.1407563025,0.09,0.0007,1.96078428e-06,0.5284992389,0.01336074255,1.600436304e-06
40085,0.1421568628,0.09,0.0007,1.96078442e-06,0.5265299178,0.01333111968,1.597749715e-06
40086,0.143557423,0.09,0.0007,1.96078428e-06,0.5245919902,0.01330192422,1.595098965e-06
40087,0.1449579832,0.09,0.0007,1.96078428e-06,0.5226851624,0.01327315365,1.592483943e-06
40088,0.1463585434,0.09,0.0007,1.96078428e-06,0.5208091431,0.01324480547,1.589904539e-06
40089,0.1477591037,0.09,0.0007,1.96078442e-06,0.5189636422,0.01321687716,1.587360636e-06
40090,0.1491596639,0.09,0.0007,1.96078428e-06,0.5171483697,0.01318936616,1.584852112e-06
40091,0.1505602241,0.09,0.0007,1.96078428e-06,0.5153630343,0.01316226984,1.582378839e-06
40092,0.1519607843,0.09,0.0007,1.96078428e-06,0.5136073431,0.0131355855,1.579940679e-06
40093,0.1533613445,0.09,0.0007,1.96078428e-06,0.5118810001,0.01310931037,1.577537486e-06
40094,0.1547619047,0.09,0.0007,1.96078442e-06,0.5101837061,0.01308344158,1.575169101e-06
40095,0.156162465,0.09,0.0007,1.96078428e-06,0.5085151585,0.01305797617,1.572835356e-06
40096,0.1575630252,0.09,0.0007,1.96078428e-06,0.5068750506,0.01303291108,1.570536072e-06
40097,0.1589635854,0.09,0.0007,1.96078428e-06,0.5052630721,0.01300824314,1.568271058e-06
40098,0.1603641457,0.09,0.0007,1.96078442e-06,0.5036789083,0.01298396909,1.56604011e-06
40099,0.1617647059,0.09,0.0007,1.96078428e-06,0.502122241,0.01296008557,1.563843016e-06
40100,0.1631652661,0.09,0.0007,1.96078428e-06,0.5005927475,0.01293658911,1.561679548e-06
40101,0.1645658263,0.09,0.0007,1.96078428e-06,0.4990901013,0.01291347613,1.55954947e-06
40102,0.1659663866,0.09,0.0007,1.96078442e-06,0.4976139717,0.01289074296,1.557452531e-06
40103,0.1673669468,0.09,0.0007,1.96078428e-06,0.4961640245,0.01286838583,1.555388472e-06
40104,0.168767507,0.09,0.0007,1.96078428e-06,0.4947399222,0.01284640088,1.553357021e-06
40105,0.1701680672,0.09,0.0007,1.96078428e-06,0.4933413248,0.01282478416,1.551357897e-06
40106,0.1715686275,0.09,0.0007,1.96078442e-06,0.4919678891,0.01280353166,1.54939081e-06
40107,0.1729691877,0.09,0.0007,1.96078428e-06,0.4906192699,0.01278263927,1.547455459e-06
40108,0.1743697479,0.09,0.0007,1.96078428e-06,0.4892951188,0.0127621028,1.545551534e-06
40109,0.1757703081,0.09,0.0007,1.96078428e-06,0.4879950856,0.01274191799,1.543678716e-06
40110,0.1771708684,0.09,0.0007,1.96078442e-06,0.4867188179,0.01272208053,1.541836676e-06
40111,0.1785714286,0.09,0.0007,1.96078428e-06,0.4854659617,0.01270258603,1.54002508e-06
40112,0.1799719888,0.09,0.0007,1.96078428e-06,0.4842361613,0.01268343002,1.538243582e-06
40113,0.181372549,0.09,0.0007,1.96078428e-06,0.4830290598,0.012664608,1.536491832e-06
40114,0.1827731093,0.09,0.0007,1.96078442e-06,0.4818442989,0.01264611541,1.53476947e-06
40115,0.1841736695,0.09,0.0007,1.96078428e-06,0.48068152,0.01262794763,1.533076131e-06
40116,0.1855742297,0.09,0.0007,1.96078428e-06,0.4795403632,0.01261010001,1.531411443e-06
40117,0.1869747899,0.09,0.0007,1.96078428e-06,0.4784204686,0.01259256784,1.529775028e-06
40118,0.1883753501,0.09,0.0007,1.96078442e-06,0.4773214759,0.01257534639,1.528166503e-06
40119,0.1897759104,0.09,0.0007,1.96078428e-06,0.4762430252,0.01255843088,1.526585479e-06
40120,0.1911764706,0.09,0.0007,1.96078428e-06,0.4751847569,0.01254181653,1.525031563e-06
40121,0.1925770308,0.09,0.0007,1.96078428e-06,0.4741463116,0.01252549852,1.523504359e-06
40122,0.193977591,0.09,0.0007,1.96078428e-06,0.473127331,0.012509472,1.522003464e-06
40123,0.1953781513,0.09,0.0007,1.96078442e-06,0.4721274577,0.01249373212,1.520528475e-06
40124,0.1967787115,0.09,0.0007,1.96078428e-06,0.4711463356,0.01247827401,1.519078985e-06
40125,0.1981792717,0.09,0.0007,1.96078428e-06,0.4701836099,0.01246309281,1.517654582e-06
40126,0.1995798319,0.09,0.0007,1.96078428e-06,0.4692389276,0.01244818364,1.516254857e-06
40127,0.2009803921,0.09,0.0007,1.96078442e-06,0.4683119373,0.01243354162,1.514879394e-06
40128,0.2023809524,0.09,0.0007,1.96078428e-06,0.46740229,0.01241916188,1.51352778e-06
40129,0.2037815126,0.09,0.0007,1.96078428e-06,0.4665096393,0.01240503958,1.512199599e-06
40130,0.2051820728,0.09,0.0007,1.96078428e-06,0.46563364,0.01239116984,1.510894433e-06
40131,0.2065826331,0.09,0.0007,1.96078442e-06,0.464773949,0.01237754783,1.509611865e-06
40132,0.2079831933,0.09,0.0007,1.96078428e-06,0.4639302263,0.0123641687,1.508351478e-06
40133,0.2093837535,0.09,0.0007,1.96078428e-06,0.4631021342,0.01235102765,1.507112852e-06
40134,0.2107843137,0.09,0.0007,1.96078428e-06,0.4622893377,0.01233811988,1.50589557e-06
40135,0.212184874,0.09,0.0007,1.96078442e-06,0.4614915048,0.01232544062,1.504699216e-06
40136,0.2135854342,0.09,0.0007,1.96078428e-06,0.4607083067,0.01231298512,1.503523375e-06
40137,0.2149859944,0.09,0.0007,1.96078428e-06,0.4599394178,0.01230074866,1.502367631e-06
40138,0.2163865546,0.09,0.0007,1.96078428e-06,0.4591845158,0.01228872658,1.501231572e-06
40139,0.2177871149,0.09,0.0007,1.96078442e-06,0.4584432821,0.01227691421,1.500114789e-06
40140,0.2191876751,0.09,0.0007,1.96078428e-06,0.4577154017,0.01226530696,1.499016873e-06
40141,0.2205882353,0.09,0.0007,1.96078428e-06,0.4570005631,0.01225390026,1.497937418e-06
40142,0.2219887955,0.09,0.0007,1.96078428e-06,0.4562984589,0.01224268958,1.496876023e-06
40143,0.2233893557,0.09,0.0007,1.96078442e-06,0.4556087854,0.01223167044,1.495832287e-06
40144,0.224789916,0.09,0.0007,1.96078428e-06,0.4549312431,0.01222083842,1.494805815e-06
40145,0.2261904762,0.09,0.0007,1.96078428e-06,0.4542655367,0.01221018912,1.493796213e-06
40146,0.2275910364,0.09,0.0007,1.96078428e-06,0.4536113748,0.01219971821,1.492803093e-06
40147,0.2289915966,0.09,0.0007,1.96078442e-06,0.4529684703,0.01218942142,1.491826069e-06
40148,0.2303921569,0.09,0.0007,1.96078428e-06,0.4523365409,0.01217929452,1.490864762e-06
40149,0.2317927171,0.09,0.0007,1.96078428e-06,0.4517153081,0.01216933333,1.489918795e-06
40150,0.2331932773,0.09,0.0007,1.96078428e-06,0.4511044982,0.01215953375,1.488987795e-06
40151,0.2345938375,0.09,0.0007,1.96078428e-06,0.450503842,0.01214989173,1.488071396e-06
40152,0.2359943978,0.09,0.0007,1.96078442e-06,0.4499130746,0.01214040326,1.487169236e-06
40153,0.237394958,0.09,0.0007,1.96078428e-06,0.449331936,0.01213106442,1.486280956e-06
40154,0.2387955182,0.09,0.0007,1.96078428e-06,0.4487601708,0.01212187133,1.485406205e-06
40155,0.2401960784,0.09,0.0007,1.96078428e-06,0.4481975279,0.0121128202,1.484544635e-06
40156,0.2415966387,0.09,0.0007,1.96078442e-06,0.4476437612,0.01210390727,1.483695906e-06
40157,0.2429971989,0.09,0.0007,1.96078428e-06,0.4470986293,0.01209512887,1.48285968e-06
40158,0.2443977591,0.09,0.0007,1.96078428e-06,0.4465618954,0.01208648138,1.482035627e-06
40159,0.2457983193,0.09,0.0007,1.96078428e-06,0.4460333274,0.01207796125,1.481223422e-06
40160,0.2471988796,0.09,0.0007,1.96078442e-06,0.4455126979,0.01206956502,1.480422745e-06
40161,0.2485994398,0.09,0.0007,1.96078428e-06,0.4449997847,0.01206128926,1.479633284e-06
40162,0.25,0.09,0.0007,1.96078428e-06,0.4444943698,0.01205313062,1.47885473e-06
40163,0.2514005602,0.09,0.0007,1.96078428e-06,0.4439962404,0.01204508585,1.478086781e-06
40164,0.2528011205,0.09,0.0007,1.96078442e-06,0.4435051882,0.01203715171,1.477329143e-06
40165,0.2542016807,0.09,0.0007,1.96078428e-06,0.4430210097,0.01202932509,1.476581525e-06
40166,0.2556022409,0.09,0.0007,1.96078428e-06,0.4425435063,0.01202160291,1.475843644e-06
40167,0.2570028011,0.09,0.0007,1.96078428e-06,0.4420724838,0.01201398216,1.475115223e-06
40168,0.2584033614,0.09,0.0007,1.96078442e-06,0.441607753,0.01200645992,1.474395989e-06
40169,0.2598039216,0.09,0.0007,1.96078428e-06,0.4411491291,0.01199903332,1.473685679e-06
40170,0.2612044818,0.09,0.0007,1.96078428e-06,0.4406964323,0.01199169957,1.472984032e-06
40171,0.262605042,0.09,0.0007,1.96078428e-06,0.4402494869,0.01198445595,1.472290797e-06
40172,0.2640056022,0.09,0.0007,1.96078442e-06,0.4398081221,0.01197729978,1.471605725e-06
40173,0.2654061625,0.09,0.0007,1.96078428e-06,0.4393721716,0.01197022849,1.470928576e-06
40174,0.2668067227,0.09,0.0007,1.96078428e-06,0.4389414734,0.01196323955,1.470259116e-06
40175,0.2682072829,0.09,0.0007,1.96078428e-06,0.4385158698,0.0119563305,1.469597115e-06
40176,0.2696078431,0.09,0.0007,1.96078428e-06,0.4380952078,0.01194949894,1.468942351e-06
40177,0.2710084033,0.09,0.0007,1.96078442e-06,0.4376793383,0.01194274255,1.468294606e-06
40178,0.2724089636,0.09,0.0007,1.96078428e-06,0.4372681168,0.01193605907,1.46765367e-06
40179,0.2738095238,0.09,0.0007,1.96078428e-06,0.4368614027,0.01192944629,1.467019337e-06
40180,0.275210084,0.09,0.0007,1.96078428e-06,0.4364590597,0.01192290207,1.466391407e-06
40181,0.2766106442,0.09,0.0007,1.96078442e-06,0.4360609553,0.01191642435,1.465769687e-06
40182,0.2780112045,0.09,0.0007,1.96078428e-06,0.4356669613,0.0119100111,1.465153988e-06
40183,0.2794117647,0.09,0.0007,1.96078428e-06,0.4352769532,0.01190366038,1.464544127e-06
40184,0.2808123249,0.09,0.0007,1.96078428e-06,0.4348908105,0.01189737028,1.463939928e-06
40185,0.2822128851,0.09,0.0007,1.96078442e-06,0.4345084162,0.01189113897,1.463341216e-06
40186,0.2836134454,0.09,0.0007,1.96078428e-06,0.4341296573,0.01188496467,1.462747827e-06
40187,0.2850140056,0.09,0.0007,1.96078428e-06,0.4337544245,0.01187884565,1.462159599e-06
40188,0.2864145658,0.09,0.0007,1.96078428e-06,0.4333826118,0.01187278025,1.461576375e-06
40189,0.287815126,0.09,0.0007,1.96078442e-06,0.433014117,0.01186676686,1.460998003e-06
40190,0.2892156863,0.09,0.0007,1.96078428e-06,0.4326488411,0.0118608039,1.460424338e-06
40191,0.2906162465,0.09,0.0007,1.96078428e-06,0.4322866887,0.01185488989,1.459855237e-06
40192,0.2920168067,0.09,0.0007,1.96078428e-06,0.4319275674,0.01184902335,1.459290565e-06
40193,0.2934173669,0.09,0.0007,1.96078442e-06,0.4315713881,0.01184320288,1.458730188e-06
40194,0.2948179272,0.09,0.0007,1.96078428e-06,0.4312180649,0.01183742713,1.458173979e-06
40195,0.2962184874,0.09,0.0007,1.96078428e-06,0.4308675148,0.01183169477,1.457621816e-06
40196,0.2976190476,0.09,0.0007,1.96078428e-06,0.4305196579,0.01182600456,1.457073577e-06
40197,0.2990196079,0.09,0.0007,1.96078442e-06,0.430174417,0.01182035525,1.45652915e-06
40198,0.3004201681,0.09,0.0007,1.96078428e-06,0.4298317179,0.01181474569,1.455988424e-06
40199,0.3018207283,0.09,0.0007,1.96078428e-06,0.4294914893,0.01180917474,1.455451292e-06
40200,0.3032212885,0.09,0.0007,1.96078428e-06,0.4291536622,0.01180364131,1.454917651e-06
40201,0.3046218487,0.09,0.0007,1.96078442e-06,0.4288181705,0.01179814435,1.454387403e-06
40202,0.306022409,0.09,0.0007,1.96078428e-06,0.4284849505,0.01179268286,1.453860454e-06
40203,0.3074229692,0.09,0.0007,1.96078428e-06,0.4281539411,0.01178725586,1.453336711e-06
40204,0.3088235294,0.09,0.0007,1.96078428e-06,0.4278250834,0.01178186243,1.452816087e-06
40205,0.3102240896,0.09,0.0007,1.96078428e-06,0.427498321,0.01177650166,1.452298498e-06
40206,0.3116246498,0.09,0.0007,1.96078442e-06,0.4271735997,0.0117711727,1.451783863e-06
40207,0.3130252101,0.09,0.0007,1.96078428e-06,0.4268508674,0.01176587473,1.451272105e-06
40208,0.3144257703,0.09,0.0007,1.96078428e-06,0.4265300743,0.01176060695,1.450763148e-06
40209,0.3158263305,0.09,0.0007,1.96078428e-06,0.4262111724,0.0117553686,1.450256921e-06
40210,0.3172268907,0.09,0.0007,1.96078442e-06,0.4258941159,0.01175015897,1.449753357e-06
40211,0.318627451,0.09,0.0007,1.96078428e-06,0.4255788609,0.01174497734,1.449252388e-06
40212,0.3200280112,0.09,0.0007,1.96078428e-06,0.4252653651,0.01173982306,1.448753954e-06
40213,0.3214285714,0.09,0.0007,1.96078428e-06,0.4249535884,0.01173469549,1.448257993e-06
40214,0.3228291316,0.09,0.0007,1.96078442e-06,0.424643492,0.01172959401,1.447764448e-06
40215,0.3242296919,0.09,0.0007,1.96078428e-06,0.4243350392,0.01172451805,1.447273264e-06
40216,0.3256302521,0.09,0.0007,1.96078428e-06,0.4240281946,0.01171946704,1.446784389e-06
40217,0.3270308123,0.09,0.0007,1.96078428e-06,0.4237229244,0.01171444045,1.446297772e-06
40218,0.3284313725,0.09,0.0007,1.96078442e-06,0.4234191964,0.01170943777,1.445813366e-06
40219,0.3298319328,0.09,0.0007,1.96078428e-06,0.4231169798,0.01170445851,1.445331125e-06
40220,0.331232493,0.09,0.0007,1.96078428e-06,0.4228162452,0.01169950221,1.444851005e-06
40221,0.3326330532,0.09,0.0007,1.96078428e-06,0.4225169645,0.01169456843,1.444372965e-06
40222,0.3340336134,0.09,0.0007,1.96078442e-06,0.4222191109,0.01168965674,1.443896964e-06
40223,0.3354341737,0.09,0.0007,1.96078428e-06,0.4219226588,0.01168476674,1.443422967e-06
40224,0.3368347339,0.09,0.0007,1.96078428e-06,0.4216275837,0.01167989805,1.442950935e-06
40225,0.3382352941,0.09,0.0007,1.96078428e-06,0.4213338625,0.01167505031,1.442480835e-06
40226,0.3396358543,0.09,0.0007,1.96078442e-06,0.421041473,0.01167022315,1.442012635e-06
40227,0.3410364146,0.09,0.0007,1.96078428e-06,0.4207503939,0.01166541625,1.441546303e-06
40228,0.3424369748,0.09,0.0007,1.96078428e-06,0.4204606051,0.0116606293,1.441081811e-06
40229,0.343837535,0.09,0.0007,1.96078428e-06,0.4201720874,0.01165586199,1.440619129e-06
40230,0.3452380952,0.09,0.0007,1.96078442e-06,0.4198848224,0.01165111404,1.440158231e-06
40231,0.3466386555,0.09,0.0007,1.96078428e-06,0.4195987928,0.01164638518,1.439699092e-06
40232,0.3480392157,0.09,0.0007,1.96078428e-06,0.419313982,0.01164167514,1.439241688e-06
40233,0.3494397759,0.09,0.0007,1.96078428e-06,0.419030374,0.01163698368,1.438785997e-06
40234,0.3508403361,0.09,0.0007,1.96078428e-06,0.418747954,0.01163231058,1.438331995e-06
40235,0.3522408963,0.09,0.0007,1.96078442e-06,0.4184667074,0.01162765559,1.437879663e-06
40236,0.3536414566,0.09,0.0007,1.96078428e-06,0.4181866209,0.01162301852,1.437428982e-06
40237,0.3550420168,0.09,0.0007,1.96078428e-06,0.4179076813,0.01161839917,1.436979933e-06
40238,0.356442577,0.09,0.0007,1.96078428e-06,0.4176298763,0.01161379734,1.436532497e-06
40239,0.3578431372,0.09,0.0007,1.96078442e-06,0.4173531941,0.01160921286,1.43608666e-06
40240,0.3592436975,0.09,0.0007,1.96078428e-06,0.4170776238,0.01160464555,1.435642405e-06
40241,0.3606442577,0.09,0.0007,1.96078428e-06,0.4168031544,0.01160009525,1.435199717e-06
40242,0.3620448179,0.09,0.0007,1.96078428e-06,0.4165297761,0.01159556181,1.434758583e-06
40243,0.3634453782,0.09,0.0007,1.96078442e-06,0.4162574791,0.01159104508,1.434318988e-06
40244,0.3648459384,0.09,0.0007,1.96078428e-06,0.4159862543,0.01158654492,1.433880921e-06
40245,0.3662464986,0.09,0.0007,1.96078428e-06,0.415716093,0.0115820612,1.433444369e-06
40246,0.3676470588,0.09,0.0007,1.96078428e-06,0.4154469868,0.0115775938,1.433009322e-06
40247,0.369047619,0.09,0.0007,1.96078442e-06,0.4151789279,0.0115731426,1.432575767e-06
40248,0.3704481793,0.09,0.0007,1.96078428e-06,0.4149119087,0.01156870749,1.432143697e-06
40249,0.3718487395,0.09,0.0007,1.96078428e-06,0.4146459222,0.01156428835,1.4317131e-06
40250,0.3732492997,0.09,0.0007,1.96078428e-06,0.4143809614,0.01155988509,1.431283968e-06
40251,0.37464986,0.09,0.0007,1.96078442e-06,0.4141170197,0.01155549762,1.430856293e-06
40252,0.3760504202,0.09,0.0007,1.96078428e-06,0.413854091,0.01155112583,1.430430066e-06
40253,0.3774509804,0.09,0.0007,1.96078428e-06,0.4135921693,0.01154676965,1.43000528e-06
40254,0.3788515406,0.09,0.0007,1.96078428e-06,0.4133312489,0.011542429,1.429581927e-06
40255,0.3802521008,0.09,0.0007,1.96078442e-06,0.4130713243,0.01153810378,1.42916e-06
40256,0.3816526611,0.09,0.0007,1.96078428e-06,0.4128123902,0.01153379393,1.428739494e-06
40257,0.3830532213,0.09,0.0007,1.96078428e-06,0.4125544416,0.01152949937,1.428320401e-06
40258,0.3844537815,0.09,0.0007,1.96078428e-06,0.4122974737,0.01152522004,1.427902715e-06
40259,0.3858543417,0.09,0.0007,1.96078428e-06,0.4120414817,0.01152095586,1.427486432e-06
40260,0.387254902,0.09,0.0007,1.96078442e-06,0.4117864611,0.01151670678,1.427071545e-06
40261,0.3886554622,0.09,0.0007,1.96078428e-06,0.4115324077,0.01151247274,1.42665805e-06
40262,0.3900560224,0.09,0.0007,1.96078428e-06,0.4112793172,0.01150825367,1.426245941e-06
40263,0.3914565826,0.09,0.0007,1.96078428e-06,0.4110271856,0.01150404952,1.425835214e-06
40264,0.3928571428,0.09,0.0007,1.96078442e-06,0.4107760088,0.01149986023,1.425425864e-06
40265,0.3942577031,0.09,0.0007,1.96078428e-06,0.4105257832,0.01149568576,1.425017887e-06
40266,0.3956582633,0.09,0.0007,1.96078428e-06,0.4102765049,0.01149152604,1.424611279e-06
40267,0.3970588235,0.09,0.0007,1.96078428e-06,0.4100281704,0.01148738104,1.424206035e-06
40268,0.3984593837,0.09,0.0007,1.96078442e-06,0.4097807761,0.0114832507,1.423802151e-06
40269,0.399859944,0.09,0.0007,1.96078428e-06,0.4095343187,0.01147913498,1.423399624e-06
40270,0.4012605042,0.09,0.0007,1.96078428e-06,0.4092887947,0.01147503384,1.42299845e-06
40271,0.4026610644,0.09,0.0007,1.96078428e-06,0.4090442008,0.01147094722,1.422598626e-06
40272,0.4040616247,0.09,0.0007,1.96078442e-06,0.4088005339,0.01146687508,1.422200147e-06
40273,0.4054621849,0.09,0.0007,1.96078428e-06,0.4085577908,0.01146281739,1.421803011e-06
40274,0.4068627451,0.09,0.0007,1.96078428e-06,0.4083159683,0.01145877409,1.421407214e-06
40275,0.4082633053,0.09,0.0007,1.96078428e-06,0.4080750633,0.01145474516,1.421012753e-06
40276,0.4096638656,0.09,0.0007,1.96078442e-06,0.4078350727,0.01145073054,1.420619624e-06
40277,0.4110644258,0.09,0.0007,1.96078428e-06,0.4075959935,0.01144673019,1.420227824e-06
40278,0.412464986,0.09,0.0007,1.96078428e-06,0.4073578225,0.01144274409,1.41983735e-06
40279,0.4138655462,0.09,0.0007,1.96078428e-06,0.4071205569,0.01143877218,1.419448198e-06
40280,0.4152661064,0.09,0.0007,1.96078442e-06,0.4068841935,0.01143481442,1.419060366e-06
40281,0.4166666667,0.09,0.0007,1.96078428e-06,0.4066487294,0.01143087078,1.418673849e-06
40282,0.4180672269,0.09,0.0007,1.96078428e-06,0.4064141616,0.01142694121,1.418288646e-06
40283,0.4194677871,0.09,0.0007,1.96078428e-06,0.4061804872,0.01142302568,1.417904752e-06
40284,0.4208683474,0.09,0.0007,1.96078442e-06,0.4059477031,0.01141912414,1.417522165e-06
40285,0.4222689076,0.09,0.0007,1.96078428e-06,0.4057158065,0.01141523656,1.41714088e-06
40286,0.4236694678,0.09,0.0007,1.96078428e-06,0.4054847943,0.01141136289,1.416760896e-06
40287,0.425070028,0.09,0.0007,1.96078428e-06,0.4052546635,0.01140750311,1.416382208e-06
40288,0.4264705882,0.09,0.0007,1.96078428e-06,0.4050254114,0.01140365715,1.416004813e-06
40289,0.4278711484,0.09,0.0007,1.96078442e-06,0.4047970347,0.01139982499,1.415628709e-06
40290,0.4292717087,0.09,0.0007,1.96078428e-06,0.4045695307,0.01139600659,1.415253891e-06
40291,0.4306722689,0.09,0.0007,1.96078428e-06,0.4043428963,0.0113922019,1.414880357e-06
40292,0.4320728291,0.09,0.0007,1.96078428e-06,0.4041171286,0.01138841089,1.414508103e-06
40293,0.4334733893,0.09,0.0007,1.96078442e-06,0.4038922244,0.01138463351,1.414137126e-06
40294,0.4348739496,0.09,0.0007,1.96078428e-06,0.4036681809,0.01138086972,1.413767421e-06
40295,0.4362745098,0.09,0.0007,1.96078428e-06,0.403444995,0.01137711948,1.413398987e-06
40296,0.43767507,0.09,0.0007,1.96078428e-06,0.4032226637,0.01137338275,1.41303182e-06
40297,0.4390756302,0.09,0.0007,1.96078442e-06,0.4030011839,0.01136965949,1.412665915e-06
40298,0.4404761905,0.09,0.0007,1.96078428e-06,0.4027805526,0.01136594965,1.412301269e-06
40299,0.4418767507,0.09,0.0007,1.96078428e-06,0.4025607666,0.01136225319,1.411937879e-06
40300,0.4432773109,0.09,0.0007,1.96078428e-06,0.402341823,0.01135857008,1.411575742e-06
40301,0.4446778711,0.09,0.0007,1.96078442e-06,0.4021237185,0.01135490025,1.411214852e-06
40302,0.4460784314,0.09,0.0007,1.96078428e-06,0.4019064501,0.01135124368,1.410855208e-06
40303,0.4474789916,0.09,0.0007,1.96078428e-06,0.4016900146,0.01134760031,1.410496805e-06
40304,0.4488795518,0.09,0.0007,1.96078428e-06,0.401474409,0.01134397011,1.410139639e-06
40305,0.450280112,0.09,0.0007,1.96078442e-06,0.4012596299,0.01134035303,1.409783706e-06
40306,0.4516806723,0.09,0.0007,1.96078428e-06,0.4010456742,0.01133674902,1.409429003e-06
40307,0.4530812325,0.09,0.0007,1.96078428e-06,0.4008325388,0.01133315803,1.409075526e-06
40308,0.4544817927,0.09,0.0007,1.96078428e-06,0.4006202204,0.01132958003,1.408723271e-06
40309,0.4558823529,0.09,0.0007,1.96078442e-06,0.4004087157,0.01132601497,1.408372234e-06
40310,0.4572829132,0.09,0.0007,1.96078428e-06,0.4001980216,0.01132246279,1.408022411e-06
40311,0.4586834734,0.09,0.0007,1.96078428e-06,0.3999881348,0.01131892346,1.407673798e-06
40312,0.4600840336,0.09,0.0007,1.96078428e-06,0.399779052,0.01131539693,1.40732639e-06
40313,0.4614845938,0.09,0.0007,1.96078428e-06,0.3995707699,0.01131188314,1.406980185e-06
40314,0.4628851541,0.09,0.0007,1.96078442e-06,0.3993632853,0.01130838206,1.406635177e-06
40315,0.4642857143,0.09,0.0007,1.96078428e-06,0.3991565948,0.01130489363,1.406291362e-06
40316,0.4656862745,0.09,0.0007,1.96078428e-06,0.3989506951,0.01130141781,1.405948737e-06
40317,0.4670868347,0.09,0.0007,1.96078428e-06,0.3987455829,0.01129795454,1.405607298e-06
40318,0.468487395,0.09,0.0007,1.96078442e-06,0.3985412548,0.01129450379,1.405267039e-06
40319,0.4698879552,0.09,0.0007,1.96078428e-06,0.3983377075,0.01129106549,1.404927957e-06