/*--------------------------------*- C++ -*----------------------------------*\
| =========                 |                                                 |
| \\      /  F ield         | OpenFOAM: The Open Source CFD Toolbox           |
|  \\    /   O peration     | Version:  2312                                  |
|   \\  /    A nd           | Website:  www.openfoam.com                      |
|    \\/     M anipulation  |                                                 |
\*---------------------------------------------------------------------------*/
FoamFile
{
    version     2.0;
    format      ascii;
    arch        "LSB;label=32;scalar=64";
    class       volScalarField;
    location    "429";
    object      epsilon;
}
// * * * * * * * * * * * * * * * * * * * * * * * * * * * * * * * * * * * * * //

dimensions      [0 2 -3 0 0 0 0];

internalField   nonuniform List<scalar> 
63546
(
4.186639158
19.19367453
35.01081249
45.93980903
50.90064403
51.11318489
48.3155534
44.00773425
39.24575385
34.65627016
30.52718115
26.92962233
23.84307629
21.21347449
18.97796402
17.07647248
15.45562938
14.06949013
12.87927651
11.85267597
10.9629495
10.18804559
9.509789012
8.913183354
8.385842517
7.917520171
7.499716285
7.12535692
6.788534382
6.484292082
6.208450643
5.957472119
5.728350957
5.518522753
5.325788762
5.148255456
4.984285738
4.832458124
4.691533089
4.560426465
4.438187831
4.323981662
4.217070673
4.116801723
4.022594299
3.933930957
3.850349105
3.77143409
3.696813683
3.626153506
3.559152798
3.495540358
3.435070825
3.37752147
3.322689524
3.270389962
3.220453666
3.172725918
3.127065189
3.08334205
3.041438069
3.001244683
2.962662098
2.925598274
2.88996804
2.855692348
2.822697697
2.790915723
2.760282913
2.730740358
2.702233455
2.674711568
2.648127657
2.622437892
2.597601272
2.573579273
2.550335573
2.52783589
2.506047901
2.484941216
2.464487337
2.444659577
2.425432923
2.406783892
2.388690358
2.371131394
2.354087128
2.337538623
2.321467812
2.305857461
2.29069117
2.275953371
2.261629323
2.24770507
2.234167391
2.221003711
2.208202032
2.195750862
2.183639178
2.171856394
2.160392353
2.14923732
2.138381982
2.127817433
2.117535154
2.107526989
2.097785116
2.08830202
2.07907048
2.070083544
2.061334515
2.052816926
2.044524531
2.036451284
2.028591337
2.020939033
2.013488908
2.006235681
1.999174255
1.992299709
1.985607288
1.979092393
1.972750575
1.966577524
1.960569061
1.954721134
1.949029812
1.943491278
1.938101827
1.932857861
1.927755883
1.922792499
1.917964412
1.913268423
1.908701423
1.904260396
1.899942411
1.895744614
1.891664226
1.887698536
1.883844891
1.880100699
1.876463425
1.872930587
1.869499765
1.866168593
1.862934766
1.859796037
1.856750214
1.853795168
1.850928821
1.848149154
1.845454197
1.842842033
1.84031079
1.83785864
1.835483796
1.833184511
1.830959077
1.82880582
1.826723104
1.82470933
1.822762937
1.8208824
1.81906623
1.817312976
1.815621223
1.813989586
1.812416713
1.810901284
1.809442002
1.808037598
1.806686825
1.80538846
1.804141304
1.802944177
1.801795927
1.800695423
1.79964156
1.798633255
1.797669452
1.796749117
1.795871242
1.795034842
1.794238954
1.79348264
1.792764983
1.79208509
1.791442087
1.790835121
1.79026336
1.789725989
1.789222208
1.788751231
1.788312269
1.787904493
1.787527276
1.787180047
1.786862101
1.786572773
1.786311406
1.78607735
1.785869967
1.785688634
1.785532742
1.785401697
1.785294919
1.78521184
1.785151903
1.785114563
1.785099286
1.78510555
1.785132843
1.785180662
1.785248497
1.785335822
1.785442204
1.78556728
1.785710654
1.785871917
1.786050596
1.78624622
1.786458346
1.786686558
1.786930462
1.78718968
1.787463847
1.787752611
1.788055631
1.788372574
1.788703116
1.789046942
1.789403748
1.789773234
1.790155113
1.790549103
1.790954929
1.791372326
1.791801036
1.792240809
1.792691395
1.793152609
1.79362415
1.79410565
1.794596984
1.795097956
1.795608352
1.796128
1.796656761
1.797194547
1.797741489
1.798297746
1.798862924
1.799436653
1.80001867
1.800608839
1.801206353
1.801810428
1.802421033
1.803038041
1.803661328
1.804290592
1.804925815
1.805567243
1.806214824
1.80686845
1.807528039
1.808193492
1.80886465
1.809541561
1.810224291
1.810912905
1.811607341
1.812307365
1.813012605
1.813722774
1.814437707
1.815157187
1.815881002
1.816608962
1.817340915
1.818076854
1.818816866
1.819560868
1.820308816
1.821060409
1.821815463
1.822573888
1.823335634
1.824100658
1.824868913
1.825640348
1.826414909
1.82719254
1.827973189
1.828756804
1.82954334
1.830332764
1.831125062
1.831920249
1.832718329
1.833519174
1.834322547
1.83512826
1.835936299
1.836746804
1.837559898
1.838375618
1.839193948
1.840014835
1.840838199
1.841663943
1.84249196
1.843322158
1.844154466
1.844988762
1.845824906
1.846662785
1.847502325
1.84834352
1.849186375
1.850030877
1.850876996
1.851724694
1.852573926
1.85342463
1.854276746
1.855130256
1.855985181
1.856841552
1.857699376
1.858558636
1.859419302
1.86028134
1.861144709
1.862009372
1.862875289
1.863742414
1.864610688
1.86548004
1.866350458
1.867222023
1.868094832
1.868968925
1.869844222
1.870720551
1.871597803
1.872475985
1.873355171
1.874235438
1.875116843
1.875999415
1.876883154
1.877768038
1.878654032
1.879541088
1.880429156
1.881318184
1.882208123
1.883098924
1.883990543
1.884882942
1.885776085
1.886669942
1.887564486
1.888459697
1.889355558
1.890252063
1.891149218
1.892047039
1.892945538
1.893844658
1.894744243
1.89564415
1.896544419
1.897445197
1.89834658
1.899248581
1.900151171
1.901054315
1.901957981
1.902862148
1.903766797
1.904671904
1.905577427
1.906483307
1.907389507
1.908296028
1.909202907
1.9101102
1.911017965
1.911926253
1.912835107
1.913744563
1.914654663
1.915565442
1.916476889
1.917388909
1.918301393
1.919214275
1.920127532
1.921041161
1.921955157
1.922869506
1.92378418
1.92469914
1.92561435
1.926529805
1.927445545
1.928361637
1.929278142
1.930195104
1.931112531
1.932030391
1.93294863
1.933867205
1.934786081
1.935705233
1.936624634
1.937544253
1.938464053
1.939383998
1.940304061
1.941224236
1.942144538
1.943064992
1.943985631
1.944906489
1.945827599
1.946748989
1.947670683
1.948592698
1.949515049
1.950437744
1.951360794
1.952284207
1.953207999
1.954132182
1.955056748
1.955981631
1.956906719
1.957831915
1.958757215
1.959682678
1.960608366
1.961534303
1.962460486
1.9633869
1.964313521
1.965240328
1.966167294
1.967094394
1.968021602
1.968948895
1.969876256
1.970803683
1.971731181
1.972658763
1.973586446
1.97451425
1.975442198
1.976370311
1.977298612
1.978227126
1.979155869
1.980084828
1.981013964
1.981943247
1.982872684
1.983802315
1.98473219
1.985662357
1.986592847
1.987523668
1.988454814
1.989386274
1.990318039
1.9912501
1.992182444
1.993115057
1.994047923
1.994981027
1.995914362
1.996847925
1.997781719
1.998715754
1.999650044
2.000584612
2.001519485
2.002454693
2.003390259
2.00432618
2.005262418
2.006198922
2.007135653
2.008072624
2.009009884
2.00994749
2.010885484
2.011823893
2.012762729
2.013701997
2.014641696
2.015581822
2.016522369
2.017463336
2.018404722
2.019346528
2.02028876
2.021231424
2.022174534
2.023118123
2.02406223
2.025006884
2.025952101
2.026897901
2.027844314
2.02879138
2.029739142
2.030687642
2.031636909
2.03258697
2.033537852
2.034489588
2.035442212
2.036395767
2.037350296
2.038305846
2.039262466
2.040220193
2.04117905
2.042139044
2.043100171
2.044062426
2.045025821
2.045990394
2.046956209
2.04792334
2.048891853
2.049861806
2.050833246
2.051806223
2.052780792
2.053757019
2.054734979
2.055714749
2.056696407
2.057680022
2.058665663
2.059653403
2.060643325
2.061635524
2.062630107
2.063627185
2.064626871
2.065629268
2.06663447
2.067642557
2.06865361
2.069667706
2.070684925
2.071705359
2.072729115
2.073756331
2.074787169
2.075821811
2.076860441
2.077903241
2.078950389
2.080002055
2.081058404
2.0821196
2.083185809
2.084257204
2.085333962
2.086416271
2.087504332
2.088598358
2.089698572
2.090805209
2.091918511
2.093038728
2.094166123
2.095300976
2.096443585
2.097594261
2.098753321
2.099921088
2.101097893
2.102284082
2.103480009
2.104686048
2.105902584
2.107130018
2.108368768
2.10961927
2.110881976
2.112157358
2.113445907
2.114748134
2.116064571
2.117395769
2.118742304
2.120104773
2.121483798
2.122880025
2.124294126
2.125726797
2.127178764
2.128650782
2.130143633
2.131658132
2.133195125
2.134755493
2.13634015
2.137950047
2.139586175
2.141249561
2.142941275
2.14466243
2.146414184
2.148197741
2.150014356
2.151865331
2.153752025
2.15567585
2.15763828
2.159640845
2.161685141
2.163772831
2.165905647
2.168085392
2.170313949
2.172593279
2.174925427
2.177312526
2.179756803
2.182260582
2.184826288
2.187456456
2.190153729
2.192920875
2.19576078
2.198676468
2.201671098
2.204747977
2.207910566
2.21116249
2.214507549
2.217949725
2.221493195
2.225142342
2.22890177
2.232776314
2.23677106
2.240891358
2.24514284
2.249531441
2.25406342
2.258745381
2.263584304
2.268587565
2.273762974
2.279118803
2.284663828
2.290407368
2.296359328
2.302530254
2.308931389
2.315574731
2.322473112
2.329640269
2.337090936
2.344840946
2.352907342
2.361308508
2.370064313
2.37919628
2.388727776
2.398684233
2.409093403
2.419985649
2.431394292
2.443356003
2.455911281
2.469104998
2.482987058
2.497613182
2.513045835
2.529355367
2.546621383
2.564934429
2.584398067
2.605131471
2.627272681
2.65098275
2.676451076
2.703902355
2.733605787
2.765887453
2.801147262
2.839882663
2.88272253
2.930476838
2.984211417
3.045363661
3.115926806
3.1987502
3.298021001
3.419955641
3.57358313
3.769683555
3.995706847
3.969305088
0.3142361827
2.16369553
4.735995449
7.219356897
9.086279527
10.18203152
10.59022294
10.45279137
9.963880997
9.295385389
8.566509644
7.844157138
7.163495137
6.540312071
5.979414751
5.479721095
5.037222605
4.646561455
4.301989719
3.997916452
3.729173802
3.491131411
3.279716151
3.091382068
2.923067462
2.772143667
2.636359162
2.513787478
2.402781427
2.301930869
2.210025151
2.12602259
2.049025366
1.978257712
1.913047006
1.852808145
1.797030779
1.745268316
1.697128412
1.652265296
1.610373658
1.571183401
1.534454934
1.499975052
1.467553467
1.437019915
1.408221626
1.38102111
1.355294361
1.330929433
1.307825194
1.285890156
1.265041374
1.245203441
1.226307625
1.208291122
1.191096408
1.174670707
1.158965553
1.143936444
1.129542517
1.115746225
1.102513021
1.089811049
1.07761086
1.065885148
1.054608526
1.043757346
1.033309573
1.023244687
1.013543597
1.004188547
0.99516302
0.9864516331
0.9780400271
0.9699147548
0.962063174
0.9544733651
0.9471340731
0.9400346807
0.9331651883
0.9265161948
0.9200788669
0.913844904
0.9078064955
0.9019562748
0.8962872723
0.8907928698
0.8854667661
0.8803029513
0.8752956942
0.8704395351
0.8657292836
0.8611600131
0.8567270497
0.8524259532
0.848252496
0.8442026416
0.840272526
0.8364584426
0.832756833
0.8291642816
0.8256775132
0.8222933891
0.8190089027
0.8158211725
0.8127274353
0.8097250372
0.8068114276
0.803984153
0.801240851
0.7985792441
0.7959971332
0.7934923922
0.7910629637
0.7887068564
0.786422143
0.7842069588
0.7820595001
0.779978023
0.7779608406
0.7760063205
0.7741128823
0.7722789946
0.7705031722
0.7687839743
0.7671200022
0.7655098974
0.7639523401
0.762446047
0.7609897708
0.7595822984
0.7582224499
0.7569090783
0.755641068
0.7544173348
0.7532368244
0.7520985112
0.7510013964
0.7499445061
0.7489268898
0.7479476185
0.7470057833
0.7461004954
0.7452308854
0.7443961034
0.7435953189
0.7428277207
0.7420925174
0.7413889364
0.7407162244
0.7400736472
0.7394604886
0.7388760504
0.7383196512
0.7377906259
0.7372883246
0.736812112
0.7363613666
0.7359354804
0.7355338581
0.7351559174
0.734801089
0.734468816
0.7341585548
0.7338697741
0.7336019554
0.7333545926
0.7331271909
0.732919267
0.7327303482
0.7325599718
0.7324076845
0.7322730416
0.7321556074
0.7320549544
0.7319706636
0.7319023243
0.7318495348
0.7318119016
0.7317890399
0.7317805737
0.7317861351
0.7318053652
0.7318379129
0.731883436
0.7319416
0.7320120785
0.732094553
0.7321887127
0.7322942542
0.7324108815
0.7325383056
0.7326762441
0.7328244165
0.7329825388
0.733150349
0.7333276087
0.7335140793
0.7337095229
0.7339137041
0.734126391
0.7343473555
0.7345763747
0.7348132307
0.7350577106
0.7353096069
0.7355687167
0.7358348416
0.7361077878
0.7363873656
0.7366733895
0.736965678
0.7372640536
0.737568341
0.7378783669
0.7381939653
0.7385149825
0.7388412751
0.7391727032
0.7395091165
0.739850361
0.7401962854
0.7405467441
0.7409015977
0.7412607125
0.7416239597
0.7419912148
0.7423623578
0.7427372718
0.743115844
0.7434979644
0.7438835265
0.7442724269
0.7446645653
0.7450598441
0.745458169
0.745859448
0.7462635922
0.7466705147
0.7470801323
0.7474923703
0.7479071462
0.7483243654
0.7487439502
0.7491658296
0.7495899344
0.750016198
0.7504445569
0.7508749676
0.7513075879
0.7517426184
0.7521797926
0.7526189362
0.7530599179
0.753502627
0.7539469307
0.7543926789
0.754839781
0.7552881722
0.755737797
0.7561885929
0.7566405225
0.7570935826
0.7575477612
0.7580030344
0.7584593727
0.7589167377
0.75937507
0.7598341269
0.7602939843
0.7607547395
0.7612164134
0.7616789793
0.7621423777
0.762606544
0.7630714232
0.7635369608
0.7640031003
0.7644697824
0.7649369468
0.7654046034
0.7658728128
0.7663415493
0.7668108529
0.7672805922
0.7677507041
0.7682211576
0.7686919347
0.7691630222
0.7696344083
0.7701060809
0.7705780276
0.7710502353
0.7715226909
0.7719953813
0.7724682942
0.7729414185
0.7734147453
0.7738882684
0.7743619779
0.7748358528
0.7753098721
0.7757840206
0.7762583004
0.7767327181
0.7772072845
0.777682002
0.778156863
0.7786318514
0.7791069457
0.779582121
0.780057351
0.7805326113
0.7810078807
0.7814831336
0.7819583431
0.7824334797
0.7829085235
0.7833834651
0.7838583008
0.7843330281
0.7848076432
0.7852821417
0.7857565176
0.7862307624
0.7867048658
0.7871788207
0.7876526295
0.7881262984
0.7885998317
0.7890732296
0.7895464894
0.7900196064
0.790492575
0.7909653886
0.7914380406
0.7919105231
0.7923828239
0.7928549272
0.7933268286
0.7937985439
0.7942700963
0.7947415074
0.7952127896
0.7956839263
0.796154894
0.7966256875
0.7970963152
0.7975667887
0.7980371168
0.7985073035
0.7989773476
0.7994472433
0.7999169811
0.8003865492
0.8008559348
0.8013251247
0.8017941063
0.8022628678
0.8027313985
0.8031996891
0.8036677316
0.8041355193
0.8046030466
0.8050703093
0.8055373044
0.8060040303
0.8064704874
0.8069366796
0.8074026132
0.8078682885
0.808333688
0.8087987839
0.8092635635
0.809728044
0.8101922489
0.8106561902
0.8111198714
0.8115832923
0.812046452
0.8125093501
0.8129719871
0.8134343635
0.8138964765
0.8143583197
0.8148198875
0.8152811825
0.8157422151
0.8162030001
0.8166635527
0.8171238868
0.8175840136
0.818043941
0.8185036763
0.8189632266
0.8194225942
0.8198817697
0.8203407339
0.820799469
0.8212579647
0.8217162157
0.8221742184
0.8226319689
0.8230894609
0.8235466852
0.8240036327
0.8244603015
0.8249166995
0.8253728403
0.8258287392
0.8262844093
0.8267398605
0.8271950953
0.8276501056
0.8281048815
0.8285594153
0.8290137007
0.8294677326
0.829921506
0.8303750145
0.8308282508
0.8312812094
0.8317338899
0.8321862971
0.8326384398
0.8330903288
0.8335419757
0.8339933917
0.834444587
0.8348955698
0.835346347
0.8357969234
0.8362473026
0.836697487
0.8371474786
0.8375972805
0.8380468977
0.8384963342
0.8389455836
0.8393946241
0.8398434285
0.8402919823
0.8407402901
0.841188363
0.8416362084
0.8420838293
0.8425312256
0.8429783954
0.8434253363
0.8438720451
0.8443185182
0.844764751
0.8452107393
0.84565648
0.8461019732
0.8465472214
0.8469922299
0.8474370049
0.8478815539
0.8483258845
0.848770004
0.8492139197
0.8496576387
0.8501011671
0.8505445066
0.8509876536
0.8514306037
0.8518733594
0.8523159301
0.8527583286
0.8532005689
0.8536426625
0.8540846158
0.8545264293
0.8549681016
0.8554096306
0.8558510136
0.8562922477
0.8567333289
0.8571742528
0.8576150155
0.8580556141
0.8584960476
0.8589363166
0.8593764237
0.8598163731
0.8602561712
0.860695826
0.8611353482
0.8615747486
0.8620140331
0.8624531982
0.862892232
0.863331122
0.8637698653
0.8642084714
0.864646954
0.8650853253
0.8655235943
0.8659617672
0.8663998474
0.866837837
0.8672757366
0.8677135463
0.8681512662
0.8685888969
0.8690264396
0.869463896
0.8699012675
0.8703385577
0.8707757748
0.8712129321
0.8716500414
0.8720871109
0.8725241484
0.8729611645
0.8733981728
0.8738351886
0.8742722266
0.8747092992
0.8751464166
0.8755835879
0.8760208225
0.8764581307
0.8768955232
0.877333012
0.8777706107
0.8782083338
0.8786461951
0.8790842047
0.8795223677
0.8799606851
0.8803991552
0.8808377776
0.8812765589
0.8817155139
0.8821546622
0.8825940235
0.8830336153
0.8834734532
0.8839135516
0.8843539264
0.8847945965
0.8852355838
0.8856769125
0.8861186074
0.8865606918
0.8870031876
0.8874461175
0.8878895067
0.8883333836
0.8887777798
0.88922273
0.8896682705
0.8901144368
0.8905612611
0.8910087719
0.8914569952
0.8919059554
0.8923556759
0.8928061806
0.893257496
0.8937096557
0.8941627024
0.8946166857
0.8950716588
0.8955276759
0.8959847917
0.8964430595
0.8969025308
0.8973632565
0.8978252884
0.8982886792
0.8987534826
0.8992197542
0.8996875527
0.9001569406
0.9006279837
0.9011007513
0.9015753148
0.9020517481
0.9025301273
0.9030105336
0.9034930541
0.9039777804
0.9044648065
0.9049542285
0.9054461449
0.9059406573
0.9064378709
0.9069378948
0.9074408423
0.9079468312
0.908455984
0.908968428
0.9094842959
0.9100037255
0.9105268604
0.91105385
0.9115848495
0.9121200205
0.9126595309
0.9132035556
0.9137522758
0.9143058803
0.9148645653
0.9154285344
0.9159979993
0.91657318
0.9171543051
0.917741612
0.9183353475
0.918935768
0.91954314
0.9201577404
0.920779857
0.9214097889
0.9220478471
0.9226943548
0.9233496482
0.9240140766
0.9246880035
0.9253718066
0.9260658791
0.9267706298
0.9274864841
0.9282138845
0.9289532916
0.9297051847
0.9304700629
0.9312484454
0.9320408733
0.9328479099
0.933670142
0.9345081811
0.9353626645
0.9362342566
0.9371236499
0.938031567
0.9389587614
0.9399060195
0.9408741618
0.941864045
0.9428765639
0.9439126532
0.9449732895
0.946059494
0.9471723346
0.9483129288
0.949482446
0.9506821111
0.9519132075
0.9531770803
0.9544751405
0.9558088688
0.9571798202
0.9585896285
0.9600400117
0.9615327777
0.9630698302
0.9646531757
0.9662849308
0.9679673297
0.9697027339
0.9714936413
0.9733426969
0.9752527048
0.9772266412
0.9792676686
0.9813791526
0.9835646787
0.9858280734
0.9881734264
0.9906051155
0.993127835
0.9957466281
0.998466923
1.001294574
1.00423591
1.007297784
1.01048764
1.013813581
1.017284451
1.020909931
1.02470065
1.028668313
1.032825856
1.037187624
1.041769586
1.046589592
1.05166768
1.057026444
1.062691496
1.068692014
1.075061437
1.081838319
1.089067421
1.096801084
1.105101016
1.114040607
1.12370801
1.134210267
1.145678964
1.158278106
1.172215313
1.187758014
1.205256735
1.225175342
1.248112095
1.274701175
1.304640015
1.330407621
1.308012063
0.03967757602
0.2682058914
0.7105105875
1.260487965
1.798298789
2.244260742
2.562691184
2.749326258
2.823861178
2.815423172
2.750217088
2.648092644
2.525741528
2.394603783
2.262247619
2.133430102
2.011035155
1.896596392
1.790749198
1.693551874
1.604707151
1.52372043
1.44999825
1.382908105
1.321821013
1.266137483
1.215300234
1.168800805
1.126182087
1.087035868
1.050998671
1.017748457
0.9870011381
0.9585063933
0.9320433909
0.9074171685
0.8844556196
0.8630064607
0.8429344093
0.8241190397
0.806453076
0.7898408302
0.7741967296
0.7594440079
0.7455136332
0.7323434206
0.7198771794
0.7080639246
0.6968572822
0.6862150505
0.6760988137
0.6664735692
0.6573073674
0.6485709781
0.6402375973
0.6322825864
0.6246832298
0.6174185285
0.6104690492
0.6038168117
0.5974451863
0.5913387921
0.5854833961
0.5798658114
0.574473797
0.569295959
0.5643216539
0.5595409119
0.5549443849
0.5505233114
0.5462694854
0.5421752269
0.5382333537
0.5344371521
0.5307803404
0.5272570261
0.5238616584
0.5205889874
0.5174340352
0.5143920814
0.5114586555
0.50862953
0.5059007113
0.5032684302
0.5007291303
0.4982794523
0.4959162162
0.4936364005
0.4914371251
0.4893156367
0.4872692998
0.4852955921
0.4833921041
0.4815565386
0.4797867086
0.4780805306
0.4764360178
0.4748512712
0.4733244708
0.4718538679
0.47043778
0.469074587
0.4677627303
0.4665007108
0.4652870877
0.4641204756
0.4629995421
0.4619230039
0.460889625
0.4598982143
0.4589476235
0.4580367445
0.4571645061
0.4563298712
0.4555318343
0.4547694204
0.4540416832
0.4533477045
0.4526865935
0.4520574863
0.4514595448
0.4508919562
0.4503539311
0.4498447033
0.449363528
0.4489096814
0.4484824592
0.4480811764
0.4477051657
0.4473537775
0.4470263786
0.446722352
0.4464410961
0.4461820241
0.4459445647
0.4457281608
0.4455322703
0.445356365
0.4451999304
0.4450624649
0.4449434788
0.4448424938
0.4447590416
0.4446926642
0.4446429132
0.4446093498
0.4445915443
0.4445890766
0.4446015355
0.4446285191
0.4446696349
0.4447244994
0.4447927382
0.4448739859
0.4449678859
0.4450740899
0.4451922579
0.4453220574
0.4454631635
0.4456152581
0.4457780303
0.4459511755
0.4461343959
0.4463274001
0.4465299035
0.4467416279
0.4469623019
0.4471916605
0.4474294452
0.4476754037
0.4479292899
0.4481908634
0.4484598893
0.4487361378
0.4490193841
0.4493094082
0.4496059947
0.4499089329
0.4502180168
0.4505330449
0.4508538204
0.4511801511
0.4515118492
0.4518487313
0.4521906188
0.4525373372
0.4528887165
0.4532445909
0.453604799
0.4539691835
0.4543375911
0.4547098728
0.4550858836
0.4554654822
0.4558485298
0.4562348896
0.4566244287
0.4570170216
0.4574125475
0.4578108884
0.4582119288
0.458615556
0.4590216596
0.4594301322
0.4598408691
0.4602537685
0.4606687312
0.461085661
0.4615044641
0.4619250493
0.4623473277
0.4627712123
0.4631966186
0.4636234632
0.4640516642
0.4644811415
0.4649118184
0.4653436275
0.465776504
0.4662103815
0.4666451944
0.4670808779
0.467517368
0.4679546021
0.4683925196
0.4688310619
0.4692701728
0.4697097978
0.4701498847
0.4705903831
0.4710312445
0.4714724218
0.47191387
0.4723555456
0.4727974068
0.4732394131
0.4736815258
0.4741237076
0.4745659226
0.4750081365
0.4754503165
0.4758924322
0.4763344534
0.4767763487
0.4772180872
0.4776596409
0.4781009841
0.4785420922
0.478982944
0.4794235259
0.4798638545
0.4803039625
0.4807438313
0.4811834289
0.4816227172
0.482061653
0.4825001944
0.4829382988
0.4833759281
0.4838130525
0.4842496478
0.4846856912
0.4851211636
0.4855560543
0.4859903562
0.4864240607
0.4868571539
0.487289615
0.4877214327
0.4881527598
0.4885835476
0.489013721
0.4894432415
0.4898720871
0.4903002424
0.4907276946
0.4911544335
0.4915804497
0.4920057332
0.4924302732
0.4928540589
0.4932770894
0.4936993766
0.4941209311
0.4945417622
0.4949618595
0.4953812127
0.4957998141
0.4962176592
0.496634746
0.4970510739
0.4974666435
0.4978814558
0.4982955119
0.498708813
0.4991213604
0.4995331551
0.4999441985
0.5003544917
0.5007640352
0.5011728262
0.50158085
0.5019880762
0.5023944235
0.5027998607
0.503204453
0.5036082342
0.5040112238
0.5044134343
0.5048148743
0.5052155498
0.5056154651
0.5060146241
0.5064130305
0.5068106878
0.5072076021
0.507603772
0.507999191
0.5083938578
0.5087877738
0.5091809421
0.5095733672
0.5099650541
0.5103560087
0.5107462371
0.5111357454
0.5115245407
0.5119126264
0.5123000025
0.5126866731
0.5130726427
0.5134579162
0.5138424984
0.5142263937
0.5146096059
0.5149921382
0.515373992
0.5157551656
0.5161356507
0.516515431
0.5168945405
0.517273032
0.5176509022
0.5180281634
0.5184048826
0.518781025
0.5191565621
0.519531488
0.5199058014
0.5202795021
0.5206525901
0.5210250659
0.5213969296
0.5217681816
0.5221388223
0.5225088518
0.5228782706
0.523247079
0.5236152779
0.5239828681
0.524349851
0.5247162282
0.5250820018
0.525447174
0.5258117475
0.5261757252
0.5265391098
0.5269019043
0.527264111
0.5276257321
0.5279867672
0.5283472158
0.5287070838
0.5290663754
0.5294250881
0.5297832334
0.530140822
0.5304978636
0.5308543656
0.5312103342
0.5315657745
0.5319206917
0.5322750913
0.5326289804
0.5329823656
0.5333352552
0.5336876559
0.5340395758
0.5343910225
0.5347420019
0.5350925186
0.5354425758
0.5357921759
0.5361413205
0.5364900109
0.5368382493
0.537186038
0.5375333771
0.5378802628
0.5382266915
0.5385726607
0.5389181694
0.5392632178
0.5396078067
0.5399519363
0.5402956046
0.5406388083
0.5409815499
0.5413238369
0.5416656743
0.5420070656
0.5423480145
0.5426885297
0.5430286217
0.5433682915
0.5437075374
0.5440463589
0.5443847568
0.5447227332
0.5450602907
0.5453974314
0.545734157
0.54607047
0.5464063754
0.5467418795
0.5470769888
0.5474117099
0.5477460485
0.54808001
0.5484135987
0.5487468181
0.5490796709
0.5494121593
0.5497442843
0.5500760464
0.5504074454
0.5507384812
0.5510691557
0.5513994728
0.5517294359
0.5520590431
0.5523882888
0.552717166
0.5530456735
0.5533738138
0.5537015883
0.554028999
0.554356048
0.554682738
0.5550090719
0.5553350526
0.5556606825
0.5559859631
0.556310896
0.556635483
0.5569597274
0.5572836331
0.5576072049
0.5579304477
0.558253366
0.5585759644
0.5588982465
0.5592202154
0.559541874
0.5598632248
0.5601842707
0.5605050161
0.5608254631
0.5611456155
0.5614654775
0.5617850534
0.5621043475
0.5624233655
0.562742112
0.5630605874
0.5633787915
0.5636967241
0.5640143847
0.5643317728
0.5646488873
0.564965727
0.5652822908
0.5655985786
0.5659145907
0.5662303287
0.5665457946
0.5668609906
0.5671759198
0.5674905859
0.5678049947
0.5681191541
0.5684330706
0.5687467457
0.5690601768
0.5693733593
0.5696862906
0.5699989728
0.5703114097
0.5706236043
0.5709355594
0.5712472776
0.5715587613
0.5718700129
0.5721810339
0.5724918258
0.5728023899
0.5731127277
0.5734228409
0.5737327308
0.5740423977
0.5743518427
0.5746610705
0.5749700886
0.5752789046
0.5755875241
0.5758959527
0.5762041972
0.5765122652
0.5768201652
0.5771279055
0.5774354924
0.5777429305
0.5780502237
0.5783573755
0.5786643891
0.5789712676
0.5792780144
0.5795846345
0.5798911343
0.5801975207
0.5805037984
0.5808099701
0.5811160362
0.5814219947
0.581727843
0.5820335822
0.5823392182
0.5826447589
0.5829502112
0.5832555813
0.5835608735
0.5838660925
0.5841712442
0.5844763364
0.5847813786
0.5850863817
0.5853913571
0.5856963148
0.5860012637
0.5863062134
0.5866111747
0.5869161597
0.5872211818
0.5875262564
0.5878314008
0.5881366319
0.5884419643
0.5887474104
0.5890529808
0.5893586851
0.5896645308
0.5899705239
0.5902766703
0.5905829789
0.5908894644
0.5911961447
0.5915030392
0.591810168
0.5921175525
0.5924252134
0.5927331707
0.5930414448
0.5933500571
0.5936590291
0.5939683819
0.5942781366
0.5945883158
0.5948989432
0.5952100441
0.5955216453
0.5958337741
0.5961464579
0.5964597238
0.5967736017
0.5970881247
0.5974033282
0.5977192478
0.5980359194
0.5983533798
0.5986716671
0.5989908206
0.599310881
0.5996318906
0.5999538931
0.6002769342
0.600601061
0.6009263228
0.6012527706
0.6015804576
0.6019094389
0.602239772
0.6025715165
0.6029047346
0.6032394905
0.6035758514
0.6039138868
0.6042536691
0.6045952733
0.6049387775
0.6052842628
0.6056318133
0.6059815164
0.606333463
0.6066877472
0.6070444671
0.6074037242
0.6077656243
0.6081302769
0.6084977961
0.6088683001
0.6092419119
0.609618759
0.6099989742
0.6103826951
0.610770065
0.6111612324
0.6115563521
0.6119555844
0.6123590963
0.6127670613
0.6131796595
0.6135970784
0.6140195127
0.614447165
0.6148802459
0.6153189743
0.6157635782
0.6162142943
0.6166713694
0.6171350599
0.6176056328
0.6180833662
0.6185685491
0.6190614831
0.6195624816
0.6200718715
0.6205899931
0.6211172012
0.6216538655
0.6222003713
0.6227571206
0.6233245326
0.6239030446
0.6244931132
0.6250952149
0.6257098474
0.6263375307
0.6269788083
0.6276342484
0.6283044452
0.6289900208
0.6296916263
0.6304099439
0.6311456884
0.6318996093
0.6326724933
0.6334651661
0.6342784951
0.6351133923
0.6359708171
0.6368517794
0.6377573432
0.6386886307
0.6396468257
0.6406331791
0.6416490129
0.6426957265
0.643774802
0.6448878109
0.6460364212
0.6472224054
0.6484476486
0.6497141583
0.6510240741
0.6523796788
0.6537834107
0.6552378758
0.6567458616
0.6583103511
0.6599345372
0.6616218371
0.6633759048
0.6652006412
0.6671002004
0.6690789859
0.6711416346
0.6732929773
0.6755379657
0.6778815421
0.6803284224
0.6828827411
0.6855474794
0.6883235511
0.6912083491
0.6941934426
0.6972609488
0.7003778392
0.7034870319
0.7064932456
0.7092383939
0.7114426745
0.7124965378
0.7106592666
0.7008473712
0.01388594299
0.04477415589
0.1184410241
0.2377995355
0.3858816494
0.5390469033
0.6774733074
0.7892561525
0.8707939135
0.9240009825
0.9530905112
0.9629065886
0.958326187
0.9435973479
0.9220958977
0.8957963342
0.8667563598
0.8364938558
0.8060912479
0.7763008724
0.7476130988
0.7203267623
0.6946108751
0.6705376431
0.6481124806
0.6272953643
0.6080157275
0.5901850999
0.5737069709
0.5584817735
0.5444097901
0.5313943336
0.5193439857
0.5081735663
0.4978043337
0.4881642076
0.4791878948
0.4708162673
0.4629956294
0.4556774486
0.4488181249
0.442378607
0.4363238953
0.4306225544
0.4252463557
0.42016999
0.415370682
0.4108278142
0.4065227129
0.4024384968
0.3985599174
0.394873191
0.3913658312
0.3880264951
0.3848448563
0.3818114903
0.3789177501
0.3761556623
0.3735178682
0.3709975851
0.3685885652
0.3662850555
0.3640817564
0.3619737809
0.3599566112
0.3580260528
0.3561781824
0.3544093105
0.3527159662
0.3510948884
0.3495430163
0.3480574798
0.3466355937
0.3452748516
0.3439729128
0.3427275823
0.3415367839
0.3403985383
0.3393109519
0.338272216
0.3372806074
0.3363344891
0.3354323073
0.3345725913
0.3337539508
0.3329750705
0.3322347017
0.3315316519
0.3308647766
0.3302329711
0.3296351675
0.3290703344
0.3285374801
0.3280356548
0.3275639505
0.3271214995
0.32670747
0.3263210626
0.3259615054
0.3256280507
0.3253199727
0.3250365667
0.3247771498
0.3245410612
0.3243276622
0.3241363347
0.3239664799
0.3238175173
0.323688884
0.3235800345
0.3234904406
0.32341959
0.3233669845
0.3233321386
0.3233145788
0.3233138424
0.3233294778
0.3233610439
0.3234081101
0.3234702564
0.3235470734
0.3236381616
0.3237431308
0.3238616003
0.3239931979
0.3241375602
0.3242943318
0.3244631652
0.3246437206
0.3248356654
0.325038674
0.3252524274
0.3254766134
0.3257109258
0.3259550654
0.3262087395
0.3264716624
0.3267435551
0.3270241454
0.3273131675
0.3276103612
0.3279154718
0.3282282494
0.328548449
0.3288758301
0.3292101569
0.3295511982
0.3298987273
0.3302525215
0.3306123632
0.330978039
0.3313493404
0.3317260633
0.3321080085
0.3324949816
0.3328867924
0.3332832553
0.3336841887
0.3340894154
0.3344987615
0.3349120572
0.335329136
0.3357498352
0.3361739957
0.336601462
0.3370320823
0.3374657087
0.3379021973
0.3383414075
0.3387832029
0.3392274506
0.3396740213
0.3401227888
0.3405736303
0.3410264258
0.341481058
0.3419374128
0.3423953785
0.3428548465
0.3433157108
0.3437778682
0.344241218