/*--------------------------------*- C++ -*----------------------------------*\
| =========                 |                                                 |
| \\      /  F ield         | OpenFOAM: The Open Source CFD Toolbox           |
|  \\    /   O peration     | Version:  2312                                  |
|   \\  /    A nd           | Website:  www.openfoam.com                      |
|    \\/     M anipulation  |                                                 |
\*---------------------------------------------------------------------------*/
FoamFile
{
    version     2.0;
    format      ascii;
    arch        "LSB;label=32;scalar=64";
    class       volScalarField;
    location    "429";
    object      k;
}
// * * * * * * * * * * * * * * * * * * * * * * * * * * * * * * * * * * * * * //

dimensions      [0 2 -2 0 0 0 0];

internalField   nonuniform List<scalar> 
63546
(
0.0377370917
0.1041430175
0.1554746303
0.1863449081
0.1995294129
0.2000844641
0.1927152334
0.1810828882
0.1677721449
0.1544232257
0.141900048
0.1305203556
0.1203463525
0.111326685
0.1033612658
0.09633634862
0.09013965049
0.08466624765
0.07982134682
0.07552122301
0.07169293313
0.06827347258
0.06520866777
0.06245204061
0.05996380842
0.05770997136
0.05566146457
0.05379341994
0.05208453058
0.05051648442
0.04907348433
0.04774186922
0.0465098014
0.0453669899
0.04430445151
0.04331431648
0.0423896692
0.04152441021
0.04071313971
0.03995106655
0.03923393413
0.03855795292
0.03791973782
0.03731625397
0.03674477245
0.03620283343
0.03568821378
0.03519889971
0.03473306548
0.03428905608
0.03386537028
0.03346064334
0.03307363051
0.03270319259
0.03234828404
0.03200794316
0.03168128414
0.03136749065
0.03106581104
0.03077555381
0.0304960828
0.03022681181
0.02996719915
0.02971674246
0.02947497416
0.02924145768
0.02901578463
0.028797573
0.02858646613
0.02838213179
0.02818426091
0.02799256597
0.02780677895
0.02762664926
0.02745194153
0.02728243357
0.02711791481
0.02695818547
0.02680305628
0.02665234866
0.02650589462
0.02636353648
0.02622512611
0.02609052414
0.02595959886
0.02583222532
0.02570828435
0.02558766189
0.0254702486
0.02535593976
0.02524463529
0.02513623993
0.02503066323
0.02492781941
0.024827627
0.02473000832
0.024634889
0.02454219755
0.02445186511
0.02436382531
0.02427801417
0.02419437021
0.02411283442
0.0240333502
0.02395586327
0.02388032151
0.02380667479
0.02373487481
0.02366487497
0.0235966303
0.0235300973
0.02346523383
0.02340199902
0.02334035317
0.02328025773
0.02322167527
0.02316456952
0.02310890531
0.02305464857
0.02300176633
0.02295022662
0.02289999844
0.02285105166
0.02280335704
0.02275688612
0.02271161122
0.02266750539
0.02262454238
0.02258269662
0.02254194322
0.02250225789
0.02246361699
0.0224259975
0.02238937698
0.02235373361
0.02231904613
0.02228529382
0.02225245646
0.02222051431
0.02218944801
0.02215923861
0.02212986749
0.0221013164
0.02207356744
0.02204660305
0.02202040608
0.02199495974
0.0219702476
0.02194625367
0.02192296228
0.0219003582
0.02187842652
0.02185715272
0.02183652259
0.02181652224
0.0217971381
0.02177835683
0.02176016541
0.02174255102
0.02172550113
0.02170900343
0.02169304587
0.02167761668
0.0216627043
0.02164829748
0.02163438519
0.02162095667
0.02160800139
0.02159550902
0.02158346946
0.02157187281
0.02156070931
0.0215499694
0.02153964366
0.02152972284
0.02152019784
0.02151105975
0.02150229982
0.02149390947
0.0214858803
0.0214782041
0.02147087282
0.0214638786
0.02145721376
0.02145087078
0.02144484233
0.02143912122
0.02143370046
0.02142857319
0.02142373271
0.02141917249
0.02141488611
0.02141086728
0.02140710979
0.02140360743
0.02140035363
0.02139734345
0.02139457239
0.02139203487
0.02138972561
0.02138763942
0.02138577113
0.02138411569
0.02138266813
0.02138142363
0.02138037746
0.021379525
0.02137886172
0.0213783832
0.02137808508
0.02137796312
0.02137801313
0.02137823103
0.0213786128
0.02137915438
0.02137985155
0.02138070084
0.02138169934
0.02138284391
0.02138413124
0.02138555756
0.02138711909
0.02138881228
0.02139063379
0.02139258046
0.02139464926
0.02139683726
0.02139914163
0.02140155963
0.02140408859
0.0214067259
0.02140946902
0.02141231552
0.02141526298
0.02141830908
0.02142145155
0.0214246882
0.02142801687
0.0214314355
0.02143494205
0.02143853453
0.02144221143
0.02144597033
0.02144980829
0.02145372428
0.02145771671
0.02146178387
0.02146592435
0.02147013704
0.02147442121
0.02147877788
0.02148320828
0.02148770928
0.0214922779
0.02149691201
0.02150161053
0.02150636699
0.02151117515
0.02151603474
0.02152094473
0.02152590412
0.02153091049
0.02153596368
0.02154106562
0.02154621589
0.02155141362
0.02155665813
0.02156194862
0.0215672838
0.02157266406
0.02157808988
0.02158356178
0.02158907923
0.02159464037
0.02160024222
0.02160588249
0.02161155985
0.02161727257
0.02162301894
0.02162879746
0.02163460689
0.02164044717
0.02164631898
0.02165222165
0.02165815481
0.02166411608
0.02167010396
0.02167611775
0.02168215702
0.02168822144
0.02169431062
0.02170042414
0.02170656157
0.02171272246
0.02171890638
0.0217251129
0.02173134167
0.02173759242
0.02174386502
0.02175015957
0.02175647611
0.02176281362
0.02176917021
0.02177554437
0.02178193601
0.0217883462
0.02179477593
0.02180122547
0.02180769468
0.02181418315
0.02182069022
0.02182721513
0.02183375702
0.02184031516
0.02184688898
0.02185347751
0.02186007964
0.02186669446
0.0218733214
0.02187996039
0.02188661148
0.02189327454
0.02189994935
0.0219066356
0.02191333291
0.02192004082
0.02192675883
0.02193348679
0.02194022489
0.02194697333
0.02195373219
0.02196050131
0.02196728048
0.02197406939
0.02198086774
0.02198767523
0.02199449153
0.02200131628
0.02200814902
0.02201498917
0.02202183665
0.02202869208
0.02203555623
0.02204242941
0.02204931099
0.02205619959
0.02206309438
0.0220699954
0.02207690323
0.02208381846
0.02209074156
0.02209767273
0.02210461198
0.02211155913
0.02211851389
0.0221254759
0.02213244476
0.02213942005
0.02214640138
0.02215338838
0.0221603807
0.02216737802
0.02217438007
0.02218138662
0.02218839744
0.02219541237
0.02220243129
0.02220945416
0.02221648099
0.02222351194
0.02223054708
0.02223758596
0.02224462737
0.02225167019
0.02225871474
0.02226576214
0.02227281316
0.0222798679
0.02228692613
0.02229398756
0.02230105197
0.02230811917
0.02231518902
0.02232226133
0.02232933576
0.02233641187
0.02234348935
0.02235056821
0.02235764876
0.02236473141
0.02237181663
0.0223789048
0.02238599627
0.02239309131
0.02240019025
0.02240729336
0.02241440055
0.02242151108
0.02242862411
0.0224357391
0.0224428559
0.02244997446
0.02245709475
0.02246421666
0.02247133997
0.02247846438
0.02248558961
0.02249271561
0.02249984271
0.02250697141
0.02251410221
0.02252123542
0.02252837113
0.02253550906
0.02254264882
0.02254979006
0.02255693251
0.02256407596
0.02257122023
0.02257836505
0.02258551016
0.02259265526
0.02259980014
0.02260694478
0.02261408926
0.02262123379
0.02262837863
0.02263552405
0.02264267029
0.02264981758
0.02265696609
0.02266411597
0.02267126733
0.02267842022
0.02268557474
0.02269273094
0.02269988895
0.02270704887
0.02271421061
0.02272137369
0.02272853722
0.02273570047
0.02274286338
0.02275002644
0.0227571901
0.02276435456
0.02277151981
0.0227786857
0.02278585208
0.02279301876
0.02280018555
0.02280735225
0.02281451866
0.02282168459
0.02282884994
0.02283601466
0.0228431788
0.02285034247
0.0228575058
0.02286466895
0.02287183208
0.02287899536
0.02288615897
0.0228933231
0.02290048788
0.0229076532
0.02291481877
0.02292198434
0.02292915
0.02293631602
0.02294348281
0.02295065072
0.02295782001
0.02296499073
0.02297216282
0.02297933622
0.02298651085
0.02299368664
0.02300086349
0.02300804129
0.02301521991
0.02302239926
0.02302957925
0.02303675989
0.02304394117
0.02305112319
0.02305830606
0.02306548995
0.02307267505
0.02307986162
0.02308704982
0.02309423962
0.02310143074
0.02310862278
0.02311581545
0.02312300884
0.02313020333
0.02313739935
0.02314459723
0.02315179718
0.02315899929
0.02316620359
0.02317341007
0.0231806187
0.02318782944
0.02319504228
0.02320225721
0.02320947424
0.02321669341
0.02322391476
0.02323113841
0.0232383646
0.02324559363
0.02325282573
0.02326006102
0.02326729964
0.02327454182
0.02328178787
0.02328903812
0.02329629288
0.02330355238
0.02331081681
0.0233180864
0.02332536137
0.02333264201
0.02333992861
0.02334722152
0.0233545211
0.0233618277
0.02336914162
0.02337646302
0.02338379195
0.02339112838
0.02339847228
0.02340582371
0.02341318299
0.02342055058
0.02342792705
0.02343531289
0.02344270855
0.02345011438
0.02345753075
0.02346495808
0.02347239688
0.02347984769
0.02348731111
0.02349478771
0.02350227804
0.02350978259
0.02351730192
0.02352483666
0.02353238752
0.02353995531
0.02354754086
0.02355514502
0.02356276858
0.02357041222
0.02357807657
0.02358576221
0.02359346973
0.02360119972
0.02360895287
0.02361672998
0.02362453208
0.02363236041
0.02364021631
0.02364810118
0.02365601639
0.02366396327
0.02367194309
0.02367995709
0.02368800649
0.02369609255
0.02370421654
0.02371237979
0.02372058372
0.02372882982
0.02373711967
0.02374545497
0.02375383744
0.02376226891
0.02377075125
0.0237792864
0.02378787648
0.02379652369
0.02380523037
0.02381399888
0.02382283162
0.02383173107
0.0238406998
0.02384974046
0.02385885582
0.02386804874
0.02387732223
0.0238866794
0.02389612347
0.02390565782
0.02391528595
0.02392501151
0.02393483831
0.02394477028
0.02395481152
0.02396496632
0.02397523909
0.02398563445
0.02399615719
0.02400681227
0.02401760488
0.02402854038
0.02403962434
0.02405086256
0.02406226107
0.02407382612
0.02408556421
0.02409748209
0.02410958678
0.02412188558
0.02413438606
0.02414709612
0.02416002394
0.02417317804
0.02418656729
0.02420020088
0.0242140884
0.02422823981
0.02424266549
0.02425737621
0.02427238319
0.02428769812
0.02430333316
0.02431930096
0.02433561469
0.02435228809
0.02436933545
0.02438677168
0.0244046123
0.02442287349
0.02444157215
0.02446072588
0.02448035305
0.02450047282
0.0245211052
0.02454227108
0.02456399227
0.02458629156
0.02460919279
0.02463272086
0.02465690183
0.02468176298
0.02470733285
0.02473364136
0.02476071985
0.0247886012
0.02481731991
0.02484691218
0.02487741606
0.02490887154
0.02494132071
0.02497480788
0.02500937972
0.02504508547
0.02508197712
0.02512010957
0.02515954092
0.02520033266
0.02524254998
0.02528626207
0.02533154242
0.02537846925
0.02542712587
0.02547760121
0.02552999027
0.02558439475
0.02564092371
0.02569969432
0.02576083265
0.0258244747
0.02589076747
0.02595987019
0.02603195577
0.02610721247
0.02618584578
0.02626808067
0.02635416415
0.0264443683
0.02653899388
0.0266383745
0.02674288165
0.02685293071
0.02696898817
0.02709158042
0.02722130442
0.02735884089
0.0275049707
0.02766059539
0.02782676324
0.02800470263
0.02819586548
0.02840198444
0.02862514963
0.02886791324
0.02913343517
0.0294256904
0.02974977119
0.03011233921
0.03052232023
0.030992
0.03153878733
0.03218797972
0.03297654038
0.03395684794
0.0351880101
0.03658085554
0.03641953856
0.009622864656
0.01931086986
0.03146377747
0.04297735509
0.0521023628
0.05832763535
0.06187836897
0.06312269005
0.06267503732
0.06114084612
0.05899063201
0.05653252689
0.05396610024
0.05141508282
0.0489531752
0.04662164663
0.04444100876
0.04241813195
0.04055136808
0.03883410022
0.03725702691
0.03580965495
0.03448118865
0.03326104275
0.03213918019
0.03110629258
0.03015385896
0.0292741523
0.02846021865
0.02770582082
0.02700536826
0.02635385815
0.02574682162
0.02518026692
0.0246506236
0.02415469444
0.02368961496
0.02325281428
0.02284197869
0.02245502255
0.02209006527
0.02174541018
0.0214195239
0.02111101743
0.02081863
0.02054121535
0.02027772905
0.02002721702
0.01978880644
0.01956169881
0.01934516367
0.01913853226
0.0189411912
0.01875257668
0.01857216924
0.01839948926
0.01823409303
0.01807556936
0.01792353715
0.01777764329
0.01763756079
0.01750298675
0.01737364029
0.0172492605
0.01712960438
0.01701444505
0.01690357006
0.01679678011
0.01669388825
0.01659471926
0.01649910908
0.01640690423
0.01631796109
0.01623214518
0.01614933033
0.01606939776
0.0159922352
0.01591773624
0.01584579989
0.01577633035
0.01570923698
0.01564443411
0.01558184087
0.01552138088
0.01546298198
0.01540657579
0.01535209734
0.01529948467
0.01524867852
0.01519962212
0.01515226108
0.01510654335
0.0150624192
0.01501984124
0.01497876428
0.01493914521
0.01490094278
0.01486411745
0.01482863117
0.0147944473
0.0147615305
0.01472984666
0.01469936296
0.01467004777
0.01464187063
0.01461480223
0.0145888143
0.01456387956
0.01453997166
0.01451706513
0.01449513532
0.01447415836
0.01445411108
0.01443497097
0.01441671613
0.01439932528
0.0143827777
0.01436705324
0.01435213231
0.01433799587
0.0143246254
0.01431200288
0.01430011077
0.01428893199
0.01427844988
0.0142686482
0.01425951109
0.01425102307
0.01424316904
0.01423593422
0.01422930418
0.0142232648
0.01421780231
0.01421290321
0.01420855433
0.0142047428
0.01420145604
0.01419868174
0.01419640788
0.01419462266
0.01419331453
0.01419247216
0.01419208439
0.01419214031
0.01419262917
0.01419354042
0.01419486374
0.01419658898
0.0141987062
0.01420120567
0.01420407785
0.0142073134
0.01421090319
0.01421483826
0.01421910986
0.01422370939
0.01422862844
0.01423385875
0.01423939221
0.01424522089
0.01425133698
0.01425773283
0.01426440092
0.01427133391
0.01427852458
0.01428596587
0.01429365088
0.01430157284
0.01430972512
0.01431810123
0.01432669482
0.01433549966
0.01434450962
0.01435371872
0.01436312105
0.01437271085
0.01438248243
0.01439243024
0.01440254883
0.01441283287
0.01442327712
0.01443387647
0.01444462592
0.01445552057
0.01446655565
0.01447772649
0.01448902851
0.01450045725
0.01451200837
0.01452367759
0.01453546079
0.01454735389
0.01455935294
0.01457145408
0.01458365348
0.01459594734
0.01460833208
0.01462080436
0.01463336085
0.01464599826
0.01465871335
0.01467150293
0.01468436391
0.01469729324
0.01471028797
0.01472334521
0.01473646215
0.01474963604
0.01476286421
0.01477614404
0.01478947299
0.01480284857
0.01481626835
0.01482972995
0.01484323105
0.01485676937
0.01487034275
0.01488394918
0.01489758667
0.01491125326
0.01492494698
0.01493866584
0.01495240792
0.01496617138
0.01497995445
0.01499375541
0.01500757263
0.01502140452
0.01503524954
0.01504910621
0.0150629731
0.0150768488
0.01509073199
0.01510462135
0.01511851563
0.01513241362
0.01514631413
0.01516021604
0.01517411824
0.01518801968
0.01520191934
0.01521581626
0.01522970947
0.01524359789
0.01525748062
0.01527135682
0.01528522566
0.01529908636
0.01531293816
0.01532678044
0.01534061358
0.01535443809
0.01536825215
0.01538205449
0.01539584398
0.01540961955
0.01542338013
0.01543712451
0.01545085186
0.01546456161
0.01547825323
0.01549192617
0.01550558009
0.01551921486
0.01553283033
0.01554642624
0.01556000228
0.01557355809
0.01558709338
0.01560060843
0.01561410271
0.01562757547
0.01564102606
0.01565445388
0.01566785831
0.01568123888
0.0156945952
0.01570792695
0.01572123375
0.0157345152
0.0157477708
0.01576100093
0.01577420661
0.0157873877
0.01580054511
0.0158136773
0.01582678369
0.01583986411
0.01585291851
0.01586594693
0.01587894936
0.01589192582
0.01590487632
0.01591780086
0.01593069943
0.01594357202
0.01595641863
0.01596923927
0.01598203395
0.01599480272
0.01600754557
0.01602026232
0.01603295293
0.01604561787
0.01605825786
0.01607087308
0.01608346345
0.01609602869
0.01610856846
0.01612108241
0.01613357022
0.01614603159
0.0161584663
0.01617087418
0.01618325513
0.01619560907
0.01620793601
0.01622023587
0.01623250862
0.01624475433
0.01625697311
0.01626916506
0.01628133032
0.01629346898
0.01630558116
0.01631766693
0.01632972639
0.01634175971
0.01635376707
0.01636574866
0.01637770463
0.01638963506
0.01640154005
0.01641341966
0.01642527398
0.01643710305
0.01644890696
0.01646068573
0.01647243936
0.0164841678
0.01649587127
0.01650755023
0.01651920505
0.01653083608
0.01654244371
0.01655402807
0.01656558925
0.01657712744
0.01658864282
0.0166001355
0.01661160548
0.0166230527
0.01663447708
0.01664587847
0.01665725676
0.01666861183
0.01667994358
0.01669125193
0.01670253683
0.01671379827
0.01672503623
0.01673625075
0.01674744188
0.01675860968
0.01676975422
0.01678087561
0.01679197396
0.01680304937
0.01681410199
0.01682513198
0.01683613952
0.01684712465
0.01685808725
0.01686902728
0.01687994485
0.01689084024
0.01690171376
0.0169125656
0.01692339593
0.01693420487
0.01694499256
0.01695575916
0.01696650481
0.01697722965
0.01698793381
0.01699861738
0.01700928057
0.01701992367
0.017030547
0.01704115087
0.01705173553
0.01706230118
0.01707284792
0.01708337583
0.01709388496
0.01710437534
0.01711484694
0.01712529966
0.01713573338
0.01714614802
0.01715654355
0.01716691998
0.01717727731
0.01718761555
0.01719793467
0.01720823464
0.01721851544
0.01722877724
0.01723902031
0.0172492449
0.01725945122
0.01726963944
0.0172798097
0.01728996208
0.01730009656
0.01731021309
0.0173203117
0.01733039238
0.01734045519
0.01735050016
0.01736052732
0.01737053671
0.01738052843
0.01739050265
0.0174004596
0.01741039953
0.01742032268
0.01743022929
0.01744011955
0.01744999363
0.01745985167
0.01746969376
0.01747951999
0.0174893304
0.01749912504
0.01750890394
0.01751866715
0.01752841474
0.01753814674
0.01754786302
0.01755756335
0.01756724754
0.01757691563
0.01758656776
0.01759620405
0.01760582458
0.01761542939
0.01762501854
0.01763459206
0.01764415
0.01765369241
0.01766321933
0.01767273081
0.0176822269
0.01769170769
0.0177011733
0.01771062387
0.01772005958
0.0177294806
0.01773888711
0.01774827927
0.01775765723
0.01776702111
0.01777637103
0.01778570707
0.01779502923
0.01780433753
0.01781363205
0.01782291296
0.01783218047
0.01784143479
0.01785067611
0.01785990455
0.01786912018
0.017878323
0.017887513
0.01789669017
0.01790585449
0.01791500593
0.01792414447
0.01793327008
0.01794238275
0.01795148249
0.01796056934
0.01796964336
0.01797870466
0.01798775333
0.01799678952
0.01800581337
0.01801482506
0.01802382473
0.01803281246
0.01804178818
0.01805075178
0.0180597032
0.0180686425
0.01807756989
0.01808648554
0.01809538957
0.01810428206
0.01811316308
0.01812203266
0.01813089083
0.01813973761
0.01814857302
0.01815739709
0.01816620986
0.01817501138
0.0181838017
0.01819258086
0.01820134897
0.01821010619
0.01821885272
0.01822758874
0.01823631438
0.0182450298
0.01825373518
0.01826243076
0.01827111675
0.01827979336
0.01828846076
0.01829711906
0.01830576839
0.01831440887
0.01832304062
0.01833166374
0.01834027836
0.01834888464
0.0183574827
0.01836607268
0.01837465463
0.01838322857
0.01839179445
0.01840035222
0.01840890188
0.01841744353
0.01842597737
0.0184345036
0.01844302241
0.01845153397
0.0184600384
0.01846853582
0.0184770264
0.01848551035
0.01849398792
0.01850245937
0.01851092496
0.01851938494
0.01852783953
0.01853628898
0.01854473359
0.01855317366
0.01856160957
0.0185700417
0.01857847044
0.01858689615
0.01859531914
0.01860373966
0.01861215794
0.01862057416
0.01862898851
0.01863740117
0.01864581235
0.01865422237
0.01866263166
0.0186710407
0.01867944999
0.01868786003
0.0186962713
0.01870468427
0.01871309938
0.01872151709
0.01872993784
0.01873836212
0.0187467904
0.0187552232
0.01876366103
0.01877210449
0.01878055417
0.01878901071
0.01879747475
0.01880594696
0.01881442802
0.01882291868
0.01883141973
0.01883993202
0.01884845639
0.01885699368
0.01886554477
0.01887411055
0.01888269196
0.01889128994
0.0188999055
0.01890853967
0.01891719353
0.01892586821
0.01893456486
0.0189432847
0.01895202898
0.01896079902
0.01896959618
0.01897842187
0.01898727755
0.01899616477
0.01900508509
0.01901404016
0.01902303169
0.01903206146
0.0190411313
0.01905024313
0.01905939892
0.01906860074
0.01907785072
0.01908715109
0.01909650414
0.01910591227
0.01911537797
0.01912490381
0.01913449248
0.01914414677
0.01915386955
0.01916366385
0.01917353278
0.01918347959
0.01919350765
0.01920362047
0.01921382169
0.0192241151
0.01923450465
0.01924499441
0.01925558867
0.01926629186
0.01927710857
0.01928804363
0.01929910201
0.01931028893
0.01932160979
0.01933307024
0.01934467616
0.01935643366
0.01936834912
0.0193804292
0.01939268082
0.01940511122
0.01941772794
0.01943053886
0.01944355218
0.0194567765
0.01947022077
0.01948389437
0.01949780709
0.01951196917
0.01952639134
0.01954108482
0.01955606136
0.01957133329
0.01958691352
0.01960281563
0.01961905383
0.0196356431
0.01965259916
0.01966993856
0.01968767874
0.01970583807
0.01972443593
0.01974349279
0.01976303031
0.01978307136
0.01980364023
0.01982476263
0.01984646591
0.01986877912
0.01989173323
0.01991536123
0.01993969841
0.0199647825
0.01999065393
0.02001735616
0.02004493591
0.02007344359
0.02010293363
0.02013346501
0.02016510175
0.02019791355
0.02023197644
0.02026737366
0.0203041966
0.02034254586
0.02038253263
0.02042428019
0.02046792576
0.02051362268
0.020561543
0.02061188067
0.02066485531
0.02072071691
0.02077975151
0.02084228825
0.02090870811
0.02097945485
0.02105504867
0.02113610355
0.02122334902
0.02131765772
0.02142007997
0.02153188653
0.02165461949
0.02179014506
0.02194067419
0.02210859806
0.02229527948
0.02249342683
0.02264490588
0.02247321753
0.007994434221
0.009023573252
0.01099220239
0.01359422992
0.0163975138
0.0190353991
0.0212675189
0.02297387664
0.02415649576
0.02488820118
0.02525250243
0.02532239157
0.0251763425
0.02487731686
0.02447471274
0.0240060062
0.02349973709
0.02297677476
0.02245197798
0.0219355978
0.02143441074
0.02095268291
0.0204928545
0.02005603133
0.01964240364
0.01925155864
0.01888269311
0.01853477745
0.01820667694
0.01789721401
0.01760520639
0.01732950582
0.01706902407
0.01682274178
0.01658970827
0.01636904208
0.01615993162
0.01596162927
0.0157734437
0.01559473667
0.01542492108
0.01526345752
0.0151098494
0.01496363831
0.01482440068
0.01469174521
0.01456530931
0.01444475526
0.01432976827
0.01422005551
0.01411534502
0.01401538423
0.01391993824
0.01382878806
0.01374172915
0.01365857006
0.01357913101
0.01350324276
0.01343074601
0.01336149111
0.01329533772
0.01323215433
0.01317181764
0.01311421195
0.01305922848
0.01300676459
0.01295672304
0.01290901148
0.01286354218
0.01282023195
0.01277900207
0.01273977808
0.01270248973
0.01266707071
0.0126334584
0.01260159345
0.0125714193
0.0125428818
0.01251592899
0.01249051111
0.01246658061
0.01244409211
0.01242300242
0.0124032704
0.01238485694
0.01236772474
0.01235183815
0.01233716295
0.01232366615
0.01231131591
0.0123000814
0.01228993286
0.01228084162
0.01227278013
0.01226572193
0.01225964159
0.01225451463
0.01225031739
0.01224702696
0.0122446211
0.01224307816
0.01224237711
0.01224249752
0.01224341954
0.01224512393
0.01224759199
0.01225080555
0.01225474693
0.01225939893
0.0122647448
0.01227076821
0.01227745326
0.01228478439
0.01229274639
0.01230132436
0.01231050372
0.01232027014
0.01233060963
0.01234150844
0.01235295314
0.01236493055
0.01237742776
0.01239043213
0.01240393125
0.01241791292
0.0124323652
0.01244727633
0.01246263479
0.01247842923
0.0124946485
0.01251128165
0.01252831789
0.01254574662
0.01256355741
0.01258174002
0.01260028437
0.01261918057
0.01263841891
0.01265798984
0.01267788399
0.01269809212
0.01271860514
0.01273941409
0.01276051016
0.01278188464
0.01280352899
0.01282543478
0.01284759372
0.01286999764
0.01289263854
0.01291550851
0.01293859983
0.01296190489
0.01298541622
0.01300912648
0.0130330285
0.01305711518
0.01308137959
0.0131058149
0.01313041441
0.01315517153
0.01318007979
0.01320513282
0.01323032439
0.01325564837
0.01328109877
0.01330666971
0.01333235544
0.01335815031
0.01338404881
0.01341004553
0.01343613519
0.01346231261
0.01348857269
0.01351491048
0.01354132109
0.01356779974
0.01359434177
0.01362094259
0.01364759774
0.01367430284
0.01370105362
0.01372784591
0.01375467564
0.01378153883
0.0138084316
0.01383535018
0.01386229088
0.0138892501
0.01391622436
0.01394321023
0.01397020442
0.0139972037
0.01402420492
0.01405120502
0.014078201
0.01410518998
0.01413216918
0.01415913591
0.01418608754
0.01421302149
0.01423993529
0.0142668265
0.01429369277
0.01432053183
0.01434734147
0.01437411955
0.01440086401
0.01442757284
0.01445424411
0.01448087593
0.01450746649
0.01453401402
0.0145605168
0.01458697316
0.01461338151
0.0146397403
0.0146660481
0.01469230357
0.01471850536
0.01474465217
0.01477074273
0.01479677585
0.01482275036
0.01484866514
0.01487451913
0.01490031132
0.01492604073
0.01495170645
0.01497730758
0.01500284329
0.01502831277
0.01505371526
0.01507905005
0.01510431644
0.01512951379
0.01515464149
0.01517969896
0.01520468566
0.01522960109
0.01525444477
0.01527921627
0.01530391517
0.01532854104
0.01535309352
0.01537757227
0.015401977
0.01542630745
0.01545056339
0.01547474469
0.0154988514
0.01552288363
0.01554684106
0.01557072337
0.0155945303
0.01561826145
0.01564191642
0.01566549489
0.01568899665
0.0157124216
0.01573576971
0.01575904098
0.0157822355
0.0158053534
0.01582839484
0.01585135993
0.01587424868
0.01589706103
0.01591979679
0.01594245442
0.01596503354
0.01598753431
0.01600995699
0.01603230185
0.01605456921
0.01607675938
0.01609887269
0.01612090947
0.01614287004
0.01616475469
0.01618656371
0.01620829749
0.01622995665
0.01625154175
0.01627305333
0.0162944916
0.01631585681
0.01633714922
0.01635836915
0.01637951693
0.01640059291
0.01642159746
0.01644253092
0.01646339366
0.01648418602
0.01650490836
0.01652556101
0.01654614431
0.01656665858
0.01658710414
0.0166074812
0.01662778975
0.01664802975
0.01666820251
0.01668830903
0.01670834881
0.0167283215
0.01674822697
0.01676806521
0.01678783636
0.01680754063
0.0168271783
0.0168467497
0.01686625521
0.01688569522
0.01690507025
0.01692438071
0.01694362687
0.01696280913
0.0169819279
0.01700098358
0.01701997662
0.01703890745
0.01705777651
0.01707658423
0.01709533108
0.01711401757
0.01713264414
0.01715121113
0.01716971886
0.0171881677
0.01720655799
0.01722489007
0.01724316431
0.01726138105
0.01727954062
0.01729764332
0.01731568937
0.01733367887
0.01735161174
0.01736948905
0.0173873123
0.01740508162
0.01742279754
0.01744046199
0.01745807501
0.01747563641
0.01749314624
0.01751060448
0.0175280111
0.01754536604
0.01756266928
0.01757992083
0.01759712073
0.01761426907
0.017631366
0.01764841166
0.01766540628
0.01768235008
0.01769924331
0.01771608625
0.0177328792
0.01774962246
0.01776631635
0.01778296118
0.01779955729
0.01781610501
0.01783260465
0.01784905653
0.01786546093
0.01788181807
0.01789812808
0.01791439128
0.01793060801
0.01794677847
0.01796290319
0.01797898264
0.01799501725
0.01801100738
0.01802695339
0.01804285561
0.01805871436
0.01807452998
0.01809030283
0.01810603328
0.01812172186
0.01813736912
0.0181529756
0.01816854172
0.01818406781
0.01819955405
0.0182150006
0.01823040753
0.01824577489
0.01826110272
0.01827639108
0.01829164007
0.01830684979
0.01832202026
0.01833715154
0.01835224372
0.01836729691
0.01838231128
0.01839728697
0.01841222411
0.01842712281
0.01844198321
0.01845680565
0.01847159063
0.01848633843
0.01850104926
0.01851572329
0.01853036086
0.01854496232
0.01855952777
0.01857405727
0.01858855095
0.01860300896
0.01861743152
0.01863181886
0.01864617118
0.01866048877
0.01867477194
0.0186890211
0.01870323664
0.01871741893
0.0187315683
0.01874568503
0.01875976933
0.01877382139
0.01878784136
0.01880182935
0.01881578545
0.01882970974
0.01884360228
0.01885746314
0.01887129235
0.01888509002
0.01889885622
0.01891259094
0.01892629421
0.01893996606
0.01895360662
0.01896721602
0.01898079443
0.01899434198
0.0190078588
0.01902134506
0.01903480094
0.01904822661
0.01906162229
0.01907498815
0.01908832439
0.01910163119
0.0191149088
0.01912815748
0.01914137752
0.01915456918
0.01916773275
0.01918086847
0.01919397654
0.01920705716
0.01922011046
0.01923313658
0.01924613559
0.01925910758
0.01927205278
0.01928497142
0.01929786375
0.01931073001
0.01932357036
0.01933638494
0.01934917389
0.01936193734
0.01937467531
0.01938738782
0.01940007489
0.01941273656
0.01942537283
0.01943798375
0.01945056933
0.01946312965
0.01947566479
0.01948817488
0.01950066006
0.01951312049
0.01952555634
0.01953796778
0.01955035499
0.01956271819
0.01957505758
0.01958737328
0.01959966529
0.01961193358
0.01962417817
0.0196363992
0.01964859682
0.01966077116
0.0196729223
0.01968505031
0.01969715526
0.01970923721
0.01972129623
0.01973333239
0.01974534578
0.01975733645
0.0197693045
0.01978125004
0.01979317313
0.01980507387
0.01981695237
0.01982880887
0.01984064363
0.01985245687
0.01986424878
0.01987601957
0.01988776949
0.01989949879
0.0199112077
0.01992289644
0.01993456514
0.01994621393
0.0199578429
0.01996945212
0.01998104167
0.0199926116
0.02000416198
0.0200156929
0.02002720446
0.02003869676
0.0200501698
0.02006162356
0.02007305797
0.02008447294
0.02009586843
0.02010724452
0.02011860138
0.02012993917
0.02014125798
0.02015255788
0.0201638389
0.02017510107
0.02018634453
0.02019756942
0.02020877595
0.02021996433
0.02023113476
0.0202422874
0.02025342239
0.02026453992
0.02027564019
0.02028672345
0.02029778995
0.02030883999
0.02031987385
0.0203308918
0.020341894
0.02035288055
0.02036385151
0.02037480691
0.02038574674
0.02039667096
0.02040757956
0.02041847265
0.02042935044
0.02044021319
0.02045106112
0.02046189446
0.02047271344
0.02048351823
0.020494309
0.02050508594
0.02051584927
0.02052659918
0.02053733588
0.02054805956
0.02055877043
0.02056946874
0.02058015475
0.02059082872
0.02060149094
0.02061214164
0.02062278107
0.02063340953
0.02064402736
0.02065463493
0.02066523258
0.02067582061
0.02068639933
0.02069696908
0.02070753019
0.02071808299
0.02072862785
0.02073916514
0.02074969524
0.02076021855
0.02077073548
0.02078124647
0.02079175195
0.02080225239
0.02081274827
0.02082324008
0.02083372833
0.02084421355
0.02085469628
0.02086517711
0.0208756566
0.02088613538
0.02089661406
0.0209070933
0.02091757378
0.02092805618
0.02093854124
0.02094902969
0.02095952231
0.0209700199
0.0209805233
0.02099103335
0.02100155096
0.02101207704
0.02102261254
0.02103315846
0.02104371583
0.0210542857
0.02106486918
0.02107546741
0.02108608157
0.0210967129
0.02110736266
0.02111803217
0.0211287228
0.02113943598
0.02115017318
0.02116093592
0.02117172579
0.02118254443
0.02119339355
0.02120427492
0.02121519038
0.02122614183
0.02123713126
0.02124816072
0.02125923234
0.02127034835
0.02128151103
0.02129272279
0.02130398611
0.02131530355
0.02132667781
0.02133811167
0.02134960801
0.02136116985
0.02137280031
0.02138450265
0.02139628024
0.02140813659
0.02142007537
0.02143210037
0.02144421556
0.02145642506
0.02146873316
0.02148114431
0.02149366318
0.0215062946
0.02151904362
0.0215319155
0.02154491572
0.02155805