/*--------------------------------*- C++ -*----------------------------------*\
| =========                 |                                                 |
| \\      /  F ield         | OpenFOAM: The Open Source CFD Toolbox           |
|  \\    /   O peration     | Version:  2312                                  |
|   \\  /    A nd           | Website:  www.openfoam.com                      |
|    \\/     M anipulation  |                                                 |
\*---------------------------------------------------------------------------*/
FoamFile
{
    version     2.0;
    format      ascii;
    arch        "LSB;label=32;scalar=64";
    class       volScalarField;
    location    "429";
    object      nut;
}
// * * * * * * * * * * * * * * * * * * * * * * * * * * * * * * * * * * * * * //

dimensions      [0 2 -1 0 0 0 0];

internalField   nonuniform List<scalar> 
63546
(
3.061355978e-05
5.085629267e-05
6.213830258e-05
6.80281067e-05
7.039358468e-05
7.049142716e-05
6.918112846e-05
6.706073754e-05
6.454900432e-05
6.192783954e-05
5.936369024e-05
5.693361279e-05
5.466962377e-05
5.25810504e-05
5.06650562e-05
4.891304612e-05
4.731376996e-05
4.585479703e-05
4.45234844e-05
4.330760094e-05
4.21956609e-05
4.117708658e-05
4.024225261e-05
3.938246864e-05
3.858995064e-05
3.785777175e-05
3.717979011e-05
3.65505736e-05
3.596532559e-05
3.541980604e-05
3.491025866e-05
3.443335408e-05
3.398614153e-05
3.356600087e-05
3.317059802e-05
3.279784822e-05
3.244588562e-05
3.21130352e-05
3.179778854e-05
3.149878543e-05
3.121479941e-05
3.094472328e-05
3.068755459e-05
3.044238255e-05
3.020837753e-05
2.99847823e-05
2.977090418e-05
2.956610828e-05
2.936981268e-05
2.918148469e-05
2.900063673e-05
2.882682174e-05
2.865962834e-05
2.849867673e-05
2.834361518e-05
2.819411732e-05
2.804987998e-05
2.791062153e-05
2.777608082e-05
2.764601616e-05
2.752020395e-05
2.739843711e-05
2.728052325e-05
2.716628292e-05
2.705554804e-05
2.694816068e-05
2.684397209e-05
2.674284228e-05
2.664463986e-05
2.654924194e-05
2.645653379e-05
2.636640837e-05
2.62787656e-05
2.619351163e-05
2.611055791e-05
2.602982044e-05
2.595121914e-05
2.587467761e-05
2.58001231e-05
2.572748668e-05
2.565670333e-05
2.558771192e-05
2.552045491e-05
2.545487806e-05
2.539092997e-05
2.532856171e-05
2.526772644e-05
2.520837905e-05
2.515047611e-05
2.509397579e-05
2.503883794e-05
2.498502426e-05
2.493249827e-05
2.48812253e-05
2.483117239e-05
2.4782308e-05
2.473460184e-05
2.468802467e-05
2.46425482e-05
2.459814501e-05
2.455478858e-05
2.451245333e-05
2.44711146e-05
2.443074869e-05
2.439133279e-05
2.435284495e-05
2.431526396e-05
2.427856934e-05
2.424274124e-05
2.420776045e-05
2.417360828e-05
2.41402666e-05
2.41077177e-05
2.407594433e-05
2.404492965e-05
2.401465726e-05
2.398511117e-05
2.395627586e-05
2.39281362e-05
2.390067754e-05
2.387388558e-05
2.384774643e-05
2.382224654e-05
2.37973727e-05
2.377311203e-05
2.374945191e-05
2.372638005e-05
2.370388441e-05
2.368195322e-05
2.366057499e-05
2.363973847e-05
2.361943266e-05
2.359964681e-05
2.358037043e-05
2.356159325e-05
2.354330526e-05
2.352549667e-05
2.350815788e-05
2.34912795e-05
2.347485229e-05
2.345886715e-05
2.344331513e-05
2.342818743e-05
2.341347536e-05
2.33991704e-05
2.338526419e-05
2.33717485e-05
2.335861531e-05
2.334585673e-05
2.333346506e-05
2.332143275e-05
2.330975244e-05
2.329841689e-05
2.328741905e-05
2.327675199e-05
2.326640891e-05
2.325638312e-05
2.324666809e-05
2.323725734e-05
2.322814455e-05
2.32193235e-05
2.321078806e-05
2.320253224e-05
2.319455018e-05
2.31868361e-05
2.317938439e-05
2.317218952e-05
2.316524609e-05
2.315854879e-05
2.315209241e-05
2.314587184e-05
2.313988204e-05
2.313411805e-05
2.312857499e-05
2.312324805e-05
2.311813249e-05
2.311322366e-05
2.310851699e-05
2.3104008e-05
2.309969228e-05
2.309556553e-05
2.309162352e-05
2.308786212e-05
2.308427729e-05
2.308086506e-05
2.307762156e-05
2.3074543e-05
2.307162568e-05
2.306886597e-05
2.306626032e-05
2.306380527e-05
2.30614974e-05
2.305933338e-05
2.30573099e-05
2.305542364e-05
2.305367113e-05
2.30520497e-05
2.305055698e-05
2.304918997e-05
2.304794586e-05
2.304682187e-05
2.304581524e-05
2.304492325e-05
2.304414324e-05
2.304347263e-05
2.304290888e-05
2.30424495e-05
2.304209206e-05
2.304183419e-05
2.304167353e-05
2.30416078e-05
2.304163475e-05
2.304175218e-05
2.304195792e-05
2.304224977e-05
2.304262547e-05
2.304308313e-05
2.30436212e-05
2.304423795e-05
2.304493162e-05
2.304570015e-05
2.304654151e-05
2.304745377e-05
2.304843513e-05
2.304948388e-05
2.305059837e-05
2.305177701e-05
2.305301829e-05
2.305432069e-05
2.305568278e-05
2.305710314e-05
2.30585804e-05
2.306011322e-05
2.306170031e-05
2.306334039e-05
2.306503225e-05
2.306677467e-05
2.30685665e-05
2.307040661e-05
2.307229389e-05
2.307422725e-05
2.307620589e-05
2.307822847e-05
2.308029341e-05
2.308240015e-05
2.308454781e-05
2.308673546e-05
2.308896234e-05
2.309122783e-05
2.309353154e-05
2.309587399e-05
2.309825585e-05
2.310067541e-05
2.310313106e-05
2.310562164e-05
2.310814657e-05
2.311070236e-05
2.311328563e-05
2.311589624e-05
2.311853363e-05
2.312119725e-05
2.312388579e-05
2.312659915e-05
2.312933838e-05
2.313210322e-05
2.31348932e-05
2.313770795e-05
2.314054703e-05
2.314340975e-05
2.314629629e-05
2.314920691e-05
2.315214188e-05
2.31551009e-05
2.315808297e-05
2.316108649e-05
2.316411021e-05
2.316715342e-05
2.317021518e-05
2.317329456e-05
2.317639076e-05
2.31795031e-05
2.318263156e-05
2.318577648e-05
2.318893749e-05
2.31921144e-05
2.319530592e-05
2.319851125e-05
2.320172999e-05
2.320496193e-05
2.320820688e-05
2.321146462e-05
2.321473492e-05
2.321801754e-05
2.322131225e-05
2.32246188e-05
2.322793696e-05
2.323126654e-05
2.323460739e-05
2.323795944e-05
2.324132273e-05
2.324469728e-05
2.324808255e-05
2.32514775e-05
2.325488135e-05
2.325829403e-05
2.326171611e-05
2.326514811e-05
2.326859019e-05
2.327204225e-05
2.327550407e-05
2.32789753e-05
2.328245552e-05
2.328594428e-05
2.328944118e-05
2.329294591e-05
2.329645796e-05
2.329997673e-05
2.330350173e-05
2.330703265e-05
2.331056946e-05
2.331411217e-05
2.331766072e-05
2.332121499e-05
2.33247748e-05
2.332833996e-05
2.333191022e-05
2.33354853e-05
2.333906513e-05
2.33426498e-05
2.334623943e-05
2.334983404e-05
2.335343356e-05
2.335703786e-05
2.336064679e-05
2.336426017e-05
2.336787785e-05
2.337149966e-05
2.337512539e-05
2.33787548e-05
2.338238759e-05
2.33860237e-05
2.338966347e-05
2.33933073e-05
2.339695535e-05
2.340060729e-05
2.340426239e-05
2.34079202e-05
2.341158075e-05
2.341524433e-05
2.341891127e-05
2.342258179e-05
2.342625603e-05
2.342993397e-05
2.343361551e-05
2.343730052e-05
2.344098878e-05
2.344468009e-05
2.344837422e-05
2.345207097e-05
2.345577014e-05
2.345947154e-05
2.346317501e-05
2.34668804e-05
2.347058757e-05
2.347429642e-05
2.347800687e-05
2.348171883e-05
2.348543229e-05
2.348914727e-05
2.349286383e-05
2.349658202e-05
2.35003016e-05
2.350402193e-05
2.350774241e-05
2.351146321e-05
2.351518494e-05
2.351890799e-05
2.352263241e-05
2.352635808e-05
2.353008485e-05
2.353381261e-05
2.353754124e-05
2.354127069e-05
2.354500083e-05
2.354873151e-05
2.355246248e-05
2.355619358e-05
2.355992482e-05
2.356365636e-05
2.356738842e-05
2.357112123e-05
2.357485501e-05
2.357858994e-05
2.358232615e-05
2.358606383e-05
2.358980311e-05
2.359354394e-05
2.359728594e-05
2.360102865e-05
2.360477182e-05
2.360851533e-05
2.361225917e-05
2.361600334e-05
2.361974776e-05
2.362349232e-05
2.362723687e-05
2.363098125e-05
2.363472545e-05
2.363846963e-05
2.364221406e-05
2.3645959e-05
2.364970461e-05
2.365345093e-05
2.365719784e-05
2.36609451e-05
2.366469255e-05
2.366844005e-05
2.367218747e-05
2.367593473e-05
2.367968169e-05
2.368342821e-05
2.368717412e-05
2.369091934e-05
2.369466382e-05
2.369840764e-05
2.37021509e-05
2.370589372e-05
2.370963626e-05
2.371337863e-05
2.371712097e-05
2.372086336e-05
2.372460587e-05
2.372834856e-05
2.373209147e-05
2.373583463e-05
2.373957809e-05
2.37433219e-05
2.374706612e-05
2.375081071e-05
2.37545554e-05
2.375829974e-05
2.376204334e-05
2.376578617e-05
2.376952849e-05
2.377327054e-05
2.377701242e-05
2.378075412e-05
2.378449557e-05
2.378823668e-05
2.379197736e-05
2.379571751e-05
2.379945703e-05
2.38031958e-05
2.380693375e-05
2.381067079e-05
2.381440693e-05
2.381814218e-05
2.382187659e-05
2.382561025e-05
2.382934322e-05
2.383307559e-05
2.383680746e-05
2.384053892e-05
2.384427006e-05
2.384800096e-05
2.385173155e-05
2.385546169e-05
2.385919125e-05
2.386292027e-05
2.386664889e-05
2.387037734e-05
2.387410579e-05
2.387783437e-05
2.388156311e-05
2.388529199e-05
2.388902096e-05
2.389275e-05
2.389647905e-05
2.390020807e-05
2.3903937e-05
2.390766578e-05
2.391139436e-05
2.391512269e-05
2.391885077e-05
2.392257862e-05
2.392630626e-05
2.393003376e-05
2.393376121e-05
2.393748871e-05
2.394121639e-05
2.394494433e-05
2.394867253e-05
2.395240083e-05
2.395612902e-05
2.395985696e-05
2.396358469e-05
2.396731242e-05
2.397104035e-05
2.397476867e-05
2.397849748e-05
2.398222683e-05
2.398595673e-05
2.398968718e-05
2.399341816e-05
2.399714966e-05
2.400088166e-05
2.400461416e-05
2.400834717e-05
2.40120807e-05
2.401581478e-05
2.401954947e-05
2.402328489e-05
2.40270212e-05
2.403075851e-05
2.403449688e-05
2.40382364e-05
2.404197717e-05
2.404571936e-05
2.404946314e-05
2.405320866e-05
2.405695604e-05
2.406070538e-05
2.40644568e-05
2.406821041e-05
2.407196636e-05
2.407572481e-05
2.407948592e-05
2.408324988e-05
2.408701687e-05
2.409078705e-05
2.409456049e-05
2.409833723e-05
2.410211724e-05
2.41059005e-05
2.410968705e-05
2.411347704e-05
2.411727072e-05
2.412106838e-05
2.412487026e-05
2.412867659e-05
2.413248756e-05
2.413630334e-05
2.414012417e-05
2.414395028e-05
2.414778197e-05
2.415161952e-05
2.415546325e-05
2.415931342e-05
2.416317029e-05
2.416703413e-05
2.417090527e-05
2.417478407e-05
2.417867094e-05
2.418256631e-05
2.418647061e-05
2.419038423e-05
2.419430753e-05
2.419824082e-05
2.42021844e-05
2.420613855e-05
2.421010359e-05
2.421407986e-05
2.421806775e-05
2.422206781e-05
2.422608064e-05
2.423010694e-05
2.423414741e-05
2.423820275e-05
2.424227363e-05
2.42463607e-05
2.425046458e-05
2.425458588e-05
2.425872525e-05
2.426288332e-05
2.426706078e-05
2.427125833e-05
2.427547672e-05
2.427971676e-05
2.428397929e-05
2.42882652e-05
2.42925754e-05
2.429691083e-05
2.430127248e-05
2.43056614e-05
2.431007872e-05
2.431452561e-05
2.431900325e-05
2.432351285e-05
2.432805567e-05
2.4332633e-05
2.433724616e-05
2.434189656e-05
2.434658563e-05
2.435131487e-05
2.435608586e-05
2.436090021e-05
2.436575962e-05
2.437066584e-05
2.437562071e-05
2.438062613e-05
2.438568408e-05
2.439079662e-05
2.439596588e-05
2.440119408e-05
2.440648354e-05
2.441183663e-05
2.441725586e-05
2.442274381e-05
2.442830316e-05
2.44339367e-05
2.443964731e-05
2.444543801e-05
2.445131191e-05
2.445727225e-05
2.446332241e-05
2.446946587e-05
2.447570626e-05
2.448204736e-05
2.448849309e-05
2.449504751e-05
2.450171486e-05
2.450849953e-05
2.451540609e-05
2.452243929e-05
2.452960406e-05
2.453690553e-05
2.454434904e-05
2.455194013e-05
2.455968457e-05
2.456758837e-05
2.457565776e-05
2.458389923e-05
2.459231955e-05
2.460092575e-05
2.460972515e-05
2.461872537e-05
2.462793436e-05
2.46373604e-05
2.46470121e-05
2.465689845e-05
2.466702882e-05
2.467741297e-05
2.468806108e-05
2.469898379e-05
2.471019218e-05
2.472169784e-05
2.473351285e-05
2.474564984e-05
2.475812203e-05
2.477094321e-05
2.478412783e-05
2.479769102e-05
2.481164859e-05
2.482601715e-05
2.484081407e-05
2.48560576e-05
2.487176688e-05
2.488796204e-05
2.490466421e-05
2.492189563e-05
2.493967972e-05
2.495804117e-05
2.4977006e-05
2.499660169e-05
2.501685729e-05
2.503780353e-05
2.505947295e-05
2.508190006e-05
2.510512153e-05
2.512917632e-05
2.515410594e-05
2.517995463e-05
2.520676967e-05
2.523460165e-05
2.526350479e-05
2.529353732e-05
2.53247619e-05
2.535724611e-05
2.539106299e-05
2.542629166e-05
2.546301808e-05
2.550133583e-05
2.554134713e-05
2.558316391e-05
2.562690918e-05
2.567271855e-05
2.572074205e-05
2.577114629e-05
2.582411708e-05
2.587986249e-05
2.59386166e-05
2.600064413e-05
2.606624598e-05
2.613576625e-05
2.620960087e-05
2.628820867e-05
2.637212535e-05
2.646198172e-05
2.655852762e-05
2.666266379e-05
2.67754853e-05
2.689834163e-05
2.70329219e-05
2.718137836e-05
2.734651006e-05
2.753204288e-05
2.774306688e-05
2.798673042e-05
2.827330191e-05
2.861753475e-05
2.903978255e-05
2.956153834e-05
3.014092723e-05
3.007439549e-05
2.652131625e-05
1.551136565e-05
1.881277914e-05
2.3026258e-05
2.688878965e-05
3.007161915e-05
3.253981819e-05
3.430688006e-05
3.548159873e-05
3.619411801e-05
3.655987477e-05
3.66684895e-05
3.658976418e-05
3.637685237e-05
3.606995193e-05
3.569926475e-05
3.528736117e-05
3.485089225e-05
3.44020373e-05
3.394964908e-05
3.35001133e-05
3.305800077e-05
3.262651658e-05
3.220783606e-05
3.180337865e-05
3.141400298e-05
3.104014435e-05
3.068192519e-05
3.033924072e-05
3.0011816e-05
2.969925129e-05
2.940106369e-05
2.911671817e-05
2.884564809e-05
2.858727034e-05
2.834099897e-05
2.8106256e-05
2.788247687e-05
2.766911379e-05
2.746563976e-05
2.727155174e-05
2.708637178e-05
2.690964684e-05
2.674094817e-05
2.657987108e-05
2.642603426e-05
2.627907846e-05
2.613866486e-05
2.600447434e-05
2.587620695e-05
2.575358109e-05
2.563633244e-05
2.552421276e-05
2.541698879e-05
2.531444124e-05
2.521636377e-05
2.512256199e-05
2.503285264e-05
2.494706291e-05
2.486503007e-05
2.478660088e-05
2.471163104e-05
2.463998466e-05
2.457153367e-05
2.450615723e-05
2.444374114e-05
2.438417728e-05
2.432736313e-05
2.427320146e-05
2.422160014e-05
2.417247184e-05
2.412573381e-05
2.408130767e-05
2.403911916e-05
2.399909786e-05
2.396117687e-05
2.392529245e-05
2.389138374e-05
2.385939256e-05
2.382926333e-05
2.380094293e-05
2.377438064e-05
2.374952802e-05
2.37263388e-05
2.370476876e-05
2.36847756e-05
2.366631882e-05
2.364935947e-05
2.363386012e-05
2.361978464e-05
2.360709822e-05
2.359576724e-05
2.358575929e-05
2.357704314e-05
2.356958865e-05
2.356336675e-05
2.355834933e-05
2.355450918e-05
2.355181992e-05
2.355025592e-05
2.354979228e-05
2.355040477e-05
2.355206982e-05
2.35547645e-05
2.35584665e-05
2.356315406e-05
2.356880598e-05
2.357540156e-05
2.358292059e-05
2.359134334e-05
2.360065054e-05
2.36108233e-05
2.362184317e-05
2.363369202e-05
2.364635209e-05
2.365980595e-05
2.367403647e-05
2.368902684e-05
2.370476053e-05
2.372122132e-05
2.373839324e-05
2.375626061e-05
2.377480798e-05
2.379402018e-05
2.381388223e-05
2.383437941e-05
2.385549723e-05
2.387722137e-05
2.389953775e-05
2.392243248e-05
2.394589187e-05
2.396990239e-05
2.399445074e-05
2.401952375e-05
2.404510848e-05
2.407119214e-05
2.409776212e-05
2.412480601e-05
2.415231154e-05
2.418026663e-05
2.420865937e-05
2.423747798e-05
2.426671085e-05
2.429634654e-05
2.432637373e-05
2.435678128e-05
2.438755817e-05
2.441869355e-05
2.445017673e-05
2.448199714e-05
2.451414439e-05
2.454660821e-05
2.457937852e-05
2.461244536e-05
2.464579893e-05
2.467942958e-05
2.47133278e-05
2.474748424e-05
2.478188968e-05
2.481653505e-05
2.485141142e-05
2.488650999e-05
2.492182211e-05
2.495733929e-05
2.499305314e-05
2.502895545e-05
2.506503815e-05
2.510129328e-05
2.513771306e-05
2.517428984e-05
2.52110161e-05
2.524788447e-05
2.528488772e-05
2.532201876e-05
2.535927061e-05
2.539663646e-05
2.54341096e-05
2.547168349e-05
2.550935168e-05
2.55471079e-05
2.558494597e-05
2.562285986e-05
2.566084366e-05
2.56988916e-05
2.573699803e-05
2.577515743e-05
2.58133644e-05
2.585161366e-05
2.588990006e-05
2.592821857e-05
2.596656428e-05
2.60049324e-05
2.604331825e-05
2.608171728e-05
2.612012503e-05
2.615853729e-05
2.619694989e-05
2.623535864e-05
2.627375947e-05
2.631214841e-05
2.635052162e-05
2.638887538e-05
2.642720609e-05
2.646551026e-05
2.650378448e-05
2.654202548e-05
2.658023004e-05
2.661839507e-05
2.665651755e-05
2.669459456e-05
2.673262327e-05
2.677060092e-05
2.680852485e-05
2.684639246e-05
2.688420126e-05
2.692194886e-05
2.695963303e-05
2.699725173e-05
2.703480253e-05
2.707228306e-05
2.710969123e-05
2.714702512e-05
2.718428292e-05
2.722146291e-05
2.72585634e-05
2.729558276e-05
2.733251941e-05
2.736937181e-05
2.740613849e-05
2.744281803e-05
2.747940907e-05
2.751591028e-05
2.755232041e-05
2.758863826e-05
2.762486267e-05
2.766099252e-05
2.769702678e-05
2.773296443e-05
2.776880451e-05
2.780454612e-05
2.78401884e-05
2.787573042e-05
2.791117138e-05
2.794651071e-05
2.798174775e-05
2.801688183e-05
2.805191232e-05
2.808683861e-05
2.812166011e-05
2.815637596e-05
2.819098143e-05
2.822547066e-05
2.825984677e-05
2.82941114e-05
2.832826521e-05
2.836230819e-05
2.839624123e-05
2.843006536e-05
2.846378084e-05
2.849738776e-05
2.853088618e-05
2.856427628e-05
2.859755804e-05
2.863073099e-05
2.866379487e-05
2.869674951e-05
2.872959473e-05
2.87623305e-05
2.879495796e-05
2.882748712e-05
2.885991309e-05
2.889222929e-05
2.892443237e-05
2.895652099e-05
2.898849508e-05
2.902035515e-05
2.90521018e-05
2.908373575e-05
2.911525772e-05
2.91466683e-05
2.917796788e-05
2.920915738e-05
2.924023818e-05
2.927121069e-05
2.930207657e-05
2.933283509e-05
2.936348643e-05
2.939403103e-05
2.942446937e-05
2.945480192e-05
2.948502912e-05
2.951515139e-05
2.954516915e-05
2.957508283e-05
2.960489283e-05
2.963459955e-05
2.966420339e-05
2.969370472e-05
2.972310389e-05
2.975240124e-05
2.9781597e-05
2.981069132e-05
2.983968476e-05
2.986857957e-05
2.989737832e-05
2.992608139e-05
2.995468796e-05
2.998319687e-05
3.001160708e-05
3.003991783e-05
3.00681287e-05
3.009623952e-05
3.012425042e-05
3.015216165e-05
3.017997357e-05
3.020768685e-05
3.023530253e-05
3.026282138e-05
3.029024405e-05
3.031757109e-05
3.034480299e-05
3.037194025e-05
3.03989834e-05
3.0425933e-05
3.045278962e-05
3.047955386e-05
3.050622642e-05
3.053280817e-05
3.05592997e-05
3.058570141e-05
3.061201363e-05
3.063823668e-05
3.066437095e-05
3.069041687e-05
3.071637488e-05
3.074224544e-05
3.076802904e-05
3.079372609e-05
3.081933697e-05
3.084486213e-05
3.087030253e-05
3.089565922e-05
3.092093269e-05
3.094612337e-05
3.097123219e-05
3.099626027e-05
3.102120885e-05
3.104607881e-05
3.107087048e-05
3.109558375e-05
3.112021831e-05
3.114477375e-05
3.116924974e-05
3.1193646e-05
3.121796242e-05
3.124219899e-05
3.126635581e-05
3.129043308e-05
3.131443111e-05
3.133835023e-05
3.136219086e-05
3.138595343e-05
3.140963842e-05
3.143324632e-05
3.145677762e-05
3.148023282e-05
3.150361243e-05
3.152691695e-05
3.155014685e-05
3.157330259e-05
3.159638455e-05
3.161939287e-05
3.16423278e-05
3.16651902e-05
3.168798099e-05
3.171070058e-05
3.173334915e-05
3.175592697e-05
3.177843446e-05
3.180087213e-05
3.182324054e-05
3.184554022e-05
3.186777171e-05
3.188993553e-05
3.191203218e-05
3.193406235e-05
3.195602697e-05
3.197792701e-05
3.199976329e-05
3.202153638e-05
3.204324661e-05
3.206489414e-05
3.208647896e-05
3.210800102e-05
3.212946018e-05
3.21508563e-05
3.217218918e-05
3.219345879e-05
3.221466543e-05
3.223580946e-05
3.225689118e-05
3.227791082e-05
3.229886856e-05
3.231976454e-05
3.234059891e-05
3.236137187e-05
3.238208378e-05
3.240273526e-05
3.242332702e-05
3.244385948e-05
3.246433284e-05
3.248474722e-05
3.250510274e-05
3.252539957e-05
3.254563794e-05
3.256581813e-05
3.258594043e-05
3.260600518e-05
3.262601268e-05
3.264596329e-05
3.266585736e-05
3.268569535e-05
3.270547782e-05
3.272520544e-05
3.274487886e-05
3.276449867e-05
3.278406538e-05
3.280357938e-05
3.282304099e-05
3.284245044e-05
3.286180789e-05
3.288111346e-05
3.290036723e-05
3.291956927e-05
3.293871963e-05
3.295781836e-05
3.297686553e-05
3.299586119e-05
3.301480527e-05
3.303369758e-05
3.305253806e-05
3.307132713e-05
3.309006545e-05
3.310875335e-05
3.312739089e-05
3.314597808e-05
3.316451495e-05
3.318300168e-05
3.320143849e-05
3.321982565e-05
3.323816349e-05
3.325645231e-05
3.327469245e-05
3.329288428e-05
3.331102824e-05
3.332912478e-05
3.334717437e-05
3.336517743e-05
3.338313439e-05
3.340104559e-05
3.341891137e-05
3.343673196e-05
3.345450759e-05
3.347223838e-05
3.348992441e-05
3.350756564e-05
3.352516223e-05
3.354271468e-05
3.356022353e-05
3.357768922e-05
3.359511203e-05
3.361249209e-05
3.362982944e-05
3.364712407e-05
3.366437596e-05
3.368158515e-05
3.369875166e-05
3.371587553e-05
3.373295678e-05
3.374999545e-05
3.376699163e-05
3.378394543e-05
3.3800857e-05
3.381772654e-05
3.383455429e-05
3.385134047e-05
3.386808534e-05
3.388478915e-05
3.390145216e-05
3.391807459e-05
3.393465659e-05
3.395119817e-05
3.396769927e-05
3.39841599e-05
3.400058032e-05
3.401696095e-05
3.403330211e-05
3.404960392e-05
3.40658664e-05
3.40820895e-05
3.40982732e-05
3.411441749e-05
3.41305224e-05
3.414658799e-05
3.416261434e-05
3.417860156e-05
3.419454978e-05
3.421045912e-05
3.422632972e-05
3.42421617e-05
3.425795529e-05
3.427371079e-05
3.428942847e-05
3.430510848e-05
3.432075103e-05
3.433635638e-05
3.435192485e-05
3.436745676e-05
3.438295236e-05
3.439841182e-05
3.441383526e-05
3.442922277e-05
3.444457446e-05
3.445989038e-05
3.447517059e-05
3.449041509e-05
3.450562389e-05
3.4520797e-05
3.453593439e-05
3.455103599e-05
3.456610162e-05
3.458113113e-05
3.459612433e-05
3.46110811e-05
3.462600145e-05
3.46408855e-05
3.465573339e-05
3.467054517e-05
3.468532078e-05
3.470006011e-05
3.471476305e-05
3.472942951e-05
3.474405948e-05
3.475865302e-05
3.477321019e-05
3.478773106e-05
3.480221565e-05
3.481666395e-05
3.483107595e-05
3.484545172e-05
3.485979134e-05
3.487409495e-05
3.488836264e-05
3.490259452e-05
3.491679065e-05
3.493095099e-05
3.494507545e-05
3.495916386e-05
3.497321605e-05
3.498723179e-05
3.500121086e-05
3.501515299e-05
3.502905799e-05
3.504292575e-05
3.505675619e-05
3.507054919e-05
3.508430456e-05
3.509802205e-05
3.511170137e-05
3.512534219e-05
3.513894418e-05
3.515250702e-05
3.516603045e-05
3.517951419e-05
3.519295797e-05
3.520636151e-05
3.521972455e-05
3.523304682e-05
3.524632803e-05
3.525956788e-05
3.527276602e-05
3.528592208e-05
3.529903567e-05
3.531210644e-05
3.532513402e-05
3.5338118e-05
3.535105789e-05
3.536395317e-05
3.537680329e-05
3.538960766e-05
3.540236571e-05
3.541507681e-05
3.542774031e-05
3.544035556e-05
3.545292186e-05
3.546543849e-05
3.54779047e-05
3.549031971e-05
3.550268271e-05
3.551499284e-05
3.552724921e-05
3.55394509e-05
3.555159695e-05
3.556368635e-05
3.557571804e-05
3.558769093e-05
3.559960389e-05
3.561145572e-05
3.562324519e-05
3.563497101e-05
3.564663184e-05
3.565822629e-05
3.566975291e-05
3.56812102e-05
3.569259658e-05
3.570391042e-05
3.571515004e-05
3.572631366e-05
3.573739946e-05
3.574840554e-05
3.575932992e-05
3.577017054e-05
3.578092527e-05
3.579159188e-05
3.580216807e-05
3.581265144e-05
3.582303951e-05
3.583332968e-05
3.584351927e-05
3.585360547e-05
3.58635854e-05
3.587345604e-05
3.588321425e-05
3.589285678e-05
3.590238024e-05
3.591178113e-05
3.592105578e-05
3.59302004e-05
3.593921103e-05
3.594808357e-05
3.595681374e-05
3.596539711e-05
3.597382905e-05
3.598210476e-05
3.599021926e-05
3.599816733e-05
3.600594357e-05
3.601354236e-05
3.602095784e-05
3.60281839e-05
3.60352142e-05
3.604204212e-05
3.604866076e-05
3.605506294e-05
3.606124116e-05
3.606718761e-05
3.607289413e-05
3.607835221e-05
3.608355295e-05
3.608848705e-05
3.609314481e-05
3.609751603e-05
3.610159009e-05
3.610535582e-05
3.610880151e-05
3.611191489e-05
3.611468307e-05
3.611709247e-05
3.611912884e-05
3.612077712e-05
3.612202146e-05
3.612284511e-05
3.612323033e-05
3.612315837e-05
3.612260929e-05
3.612156195e-05
3.611999379e-05
3.611788078e-05
3.611519721e-05
3.611191555e-05
3.610800621e-05
3.610343734e-05
3.609817453e-05
3.609218052e-05
3.608541481e-05
3.607783323e-05
3.606938745e-05
3.60600243e-05
3.604968513e-05
3.603830483e-05
3.602581082e-05
3.601212164e-05
3.599714536e-05
3.598077745e-05
3.596289813e-05
3.594336893e-05
3.592202816e-05
3.589868489e-05
3.587311074e-05
3.584502842e-05
3.581409553e-05
3.577988078e-05
3.574182859e-05
3.569920461e-05
3.565100999e-05
3.559584311e-05
3.553167276e-05
3.545546496e-05
3.53626008e-05
3.524612084e-05
3.509618937e-05
3.49030246e-05
3.468956274e-05
3.475051709e-05
0.0001449682325
2.732318311e-05
1.530528381e-05
1.319511039e-05
1.345664105e-05
1.453092195e-05
1.58847319e-05
1.727765505e-05
1.859803388e-05
1.980094175e-05
2.086817051e-05
2.179308812e-05
2.258597695e-05
2.326033261e-05
2.38307426e-05
2.431106131e-05
2.471433072e-05
2.505219153e-05
2.533476962e-05
2.55707199e-05
2.576735369e-05
2.593083491e-05
2.606633332e-05
2.617816412e-05
2.626994239e-05
2.634471088e-05
2.640503804e-05
2.645311128e-05
2.649081175e-05
2.65197544e-05
2.654132403e-05
2.655671868e-05
2.656698298e-05
2.657302848e-05
2.657564882e-05
2.657553694e-05
2.657330066e-05
2.656947062e-05
2.656450741e-05
2.655881252e-05
2.655273788e-05
2.65465919e-05
2.654064351e-05
2.6535126e-05
2.653024186e-05
2.652616713e-05
2.652305381e-05
2.652103186e-05
2.652021262e-05
2.652069213e-05
2.652255334e-05
2.652586747e-05
2.653069496e-05
2.653708646e-05
2.654508399e-05
2.65547219e-05
2.656602759e-05
2.657902234e-05
2.659372243e-05
2.66101402e-05
2.662828463e-05
2.664816168e-05
2.666977457e-05
2.669312392e-05
2.671820793e-05
2.674502253e-05
2.677356146e-05
2.680381659e-05
2.683577845e-05
2.686943668e-05
2.690478021e-05
2.694179738e-05
2.698047601e-05
2.702080344e-05
2.706276649e-05
2.710635131e-05
2.715154329e-05
2.719832705e-05
2.724668673e-05
2.729660625e-05
2.734806955e-05
2.740106058e-05
2.745556333e-05
2.751156177e-05
2.756903982e-05
2.762798126e-05
2.768836965e-05
2.775018829e-05
2.781342022e-05
2.787804829e-05
2.794405521e-05
2.801142374e-05
2.808013674e-05
2.815017719e-05
2.822152814e-05
2.829417265e-05
2.836809368e-05
2.844327406e-05
2.851969648e-05
2.859734345e-05
2.867619742e-05
2.875624078e-05
2.883745588e-05
2.891982515e-05
2.900333098e-05
2.908795574e-05
2.917368175e-05
2.926049125e-05
2.934836643e-05
2.943728945e-05
2.95272424e-05
2.961820733e-05
2.971016622e-05
2.980310099e-05
2.989699352e-05
2.999182563e-05
3.008757914e-05
3.018423586e-05
3.028177762e-05
3.038018621e-05
3.047944345e-05
3.057953116e-05
3.068043112e-05
3.07821251e-05
3.088459488e-05
3.098782221e-05
3.109178886e-05
3.11964766e-05
3.13018672e-05
3.140794247e-05
3.151468423e-05
3.162207433e-05
3.173009466e-05
3.183872717e-05
3.194795384e-05
3.205775673e-05
3.216811798e-05
3.227901979e-05
3.239044445e-05
3.25023743e-05
3.261479176e-05
3.272767934e-05
3.284101964e-05
3.295479537e-05
3.306898933e-05
3.318358449e-05
3.329856394e-05
3.341391091e-05
3.352960877e-05
3.364564105e-05
3.376199145e-05
3.387864381e-05
3.399558211e-05
3.411279052e-05
3.423025336e-05
3.43479551e-05
3.446588038e-05
3.458401401e-05
3.470234095e-05
3.482084637e-05
3.493951557e-05
3.505833407e-05
3.51772876e-05
3.529636205e-05
3.541554354e-05
3.553481839e-05
3.565417314e-05
3.577359452e-05
3.58930695e-05
3.601258521e-05
3.613212904e-05
3.625168857e-05
3.637125159e-05
3.649080611e-05
3.661034035e-05
3.672984276e-05
3.684930203e-05
3.696870703e-05
3.708804694e-05
3.720731111e-05
3.732648915e-05
3.74455709e-05
3.756454641e-05
3.768340597e-05
3.780214011e-05
3.792073956e-05
3.803919526e-05
3.81574984e-05
3.827564036e-05
3.839361274e-05
3.851140734e-05
3.862901619e-05
3.87464315e-05
3.886364569e-05
3.898065137e-05
3.909744151e-05
3.92140093e-05
3.933034804e-05
3.944645107e-05
3.956231191e-05
3.967792424e-05
3.979328198e-05
3.990837921e-05
4.002321026e-05
4.013776964e-05
4.025205207e-05
4.036605243e-05
4.047976581e-05
4.059318745e-05
4.070631278e-05
4.081913739e-05
4.093165704e-05
4.104386765e-05
4.115576532e-05
4.126734633e-05
4.137860724e-05
4.148954462e-05
4.160015497e-05
4.171043498e-05
4.182038149e-05
4.192999158e-05
4.203926258e-05
4.214819202e-05
4.225677756e-05
4.236501704e-05
4.247290839e-05
4.258044966e-05
4.268763899e-05
4.279447463e-05
4.290095491e-05
4.300707828e-05
4.311284325e-05
4.321824846e-05
4.332329263e-05
4.342797457e-05
4.353229318e-05
4.363624746e-05
4.373983648e-05
4.384305942e-05
4.394591552e-05
4.404840411e-05
4.415052452e-05
4.425227609e-05
4.435365847e-05
4.445467139e-05
4.455531464e-05
4.465558805e-05
4.475549147e-05
4.485502478e-05
4.495418756e-05
4.50529777e-05
4.515139196e-05
4.524942932e-05
4.534709024e-05
4.544437583e-05
4.554128714e-05
4.5637825e-05
4.573399083e-05
4.58297862e-05
4.592521267e-05
4.602027167e-05
4.611496471e-05
4.620929336e-05
4.630325883e-05
4.639686202e-05
4.649010372e-05
4.658298479e-05
4.667550621e-05
4.676766724e-05
4.68594437e-05
4.695083726e-05
4.70418555e-05
4.713250299e-05
4.722278294e-05
4.731269808e-05
4.740225089e-05
4.74914438e-05
4.758027911e-05
4.766875913e-05
4.775688614e-05
4.784466232e-05
4.793208969e-05
4.801917013e-05
4.810590554e-05
4.819229769e-05
4.82783484e-05
4.836405963e-05
4.844943329e-05
4.853447123e-05
4.861917521e-05
4.870354693e-05
4.878758804e-05
4.887130017e-05
4.895468489e-05
4.903774377e-05
4.912047837e-05
4.920289022e-05
4.928498081e-05
4.936675159e-05
4.944820394e-05
4.952933909e-05
4.961015812e-05
4.96906634e-05
4.977087042e-05
4.985078796e-05
4.99304063e-05
5.000971969e-05
5.0088725e-05
5.016742073e-05
5.024580646e-05
5.032388256e-05
5.040164993e-05
5.047910986e-05
5.055626393e-05
5.063311388e-05
5.070966189e-05
5.078591024e-05
5.0861861e-05
5.093751633e-05
5.101287825e-05
5.10879487e-05
5.116272957e-05
5.123722268e-05
5.131142984e-05
5.138535287e-05
5.145899358e-05
5.153235409e-05
5.160543659e-05
5.167824272e-05
5.175077395e-05
5.182303165e-05
5.18950172e-05
5.196673203e-05
5.203817759e-05
5.210935536e-05
5.218026679e-05
5.225091334e-05
5.232129635e-05
5.239141697e-05
5.24612762e-05
5.253087693e-05
5.260022254e-05
5.266931407e-05
5.273815324e-05
5.28067447e-05
5.287509209e-05
5.294319697e-05
5.301106e-05
5.307868111e-05
5.314605989e-05
5.321319587e-05
5.328008867e-05
5.334673814e-05
5.341314437e-05
5.347930772e-05
5.354522879e-05
5.361090843e-05
5.367634764e-05
5.374154761e-05
5.380650963e-05
5.387123509e-05
5.393572546e-05
5.399998224e-05
5.406400698e-05
5.412780123e-05
5.419136654e-05
5.425470447e-05
5.431781656e-05
5.438070428e-05
5.444336909e-05
5.450581217e-05
5.456803431e-05
5.463003663e-05
5.469182068e-05
5.475338784e-05
5.481474e-05
5.487587882e-05
5.49368058e-05
5.499752231e-05
5.505802973e-05
5.511832942e-05
5.517842275e-05
5.523831106e-05
5.529799573e-05
5.535747824e-05
5.541676086e-05
5.547584615e-05
5.553473643e-05
5.559343347e-05
5.565193845e-05
5.571025208e-05
5.576837473e-05
5.582630658e-05
5.588404767e-05
5.594159801e-05
5.599895764e-05
5.605612686e-05
5.611310614e-05
5.616989594e-05
5.622649689e-05
5.628290973e-05
5.633913524e-05