/*--------------------------------*- C++ -*----------------------------------*\
| =========                 |                                                 |
| \\      /  F ield         | OpenFOAM: The Open Source CFD Toolbox           |
|  \\    /   O peration     | Version:  2312                                  |
|   \\  /    A nd           | Website:  www.openfoam.com                      |
|    \\/     M anipulation  |                                                 |
\*---------------------------------------------------------------------------*/
FoamFile
{
    version     2.0;
    format      ascii;
    arch        "LSB;label=32;scalar=64";
    class       volScalarField;
    location    "429";
    object      p;
}
// * * * * * * * * * * * * * * * * * * * * * * * * * * * * * * * * * * * * * //

dimensions      [0 2 -2 0 0 0 0];

internalField   nonuniform List<scalar> 
63546
(
0.8816351988
0.7817463232
0.712645211
0.6727347577
0.6450304046
0.6229107933
0.605270746
0.5916089515
0.5808105717
0.5714642794
0.562902134
0.5551258639
0.5481224827
0.5418511069
0.5362552747
0.531258732
0.5267801519
0.5227465909
0.5190946276
0.5157687158
0.5127208645
0.5099100773
0.5073014911
0.5048658205
0.5025785297
0.5004189352
0.4983696073
0.4964158802
0.4945453338
0.4927474119
0.4910131925
0.4893351277
0.4877067644
0.4861225498
0.4845777132
0.4830681592
0.4815903533
0.4801412336
0.4787181584
0.4773188491
0.4759413211
0.4745838298
0.4732448401
0.4719230062
0.47061715
0.4693262378
0.4680493606
0.4667857222
0.4655346244
0.4642954482
0.463067637
0.4618506875
0.4606441452
0.4594476018
0.4582606916
0.4570830875
0.4559144974
0.4547546598
0.4536033389
0.4524603178
0.4513253943
0.4501983778
0.4490790882
0.4479673561
0.446863023
0.4457659417
0.4446759766
0.4435930025
0.442516903
0.4414475677
0.4403848894
0.4393287635
0.4382790863
0.4372357559
0.4361986723
0.4351677383
0.4341428608
0.4331239519
0.432110928
0.4311037084
0.4301022144
0.4291063678
0.4281160903
0.4271313032
0.4261519281
0.4251778867
0.4242091019
0.4232454986
0.4222870035
0.4213335458
0.4203850567
0.4194414685
0.4185027145
0.4175687281
0.4166394426
0.4157147915
0.4147947088
0.4138791292
0.4129679885
0.412061224
0.4111587739
0.4102605777
0.4093665755
0.4084767084
0.4075909176
0.4067091448
0.4058313326
0.4049574236
0.4040873615
0.4032210902
0.4023585544
0.4014996995
0.4006444717
0.3997928182
0.3989446867
0.3981000261
0.3972587862
0.3964209173
0.3955863703
0.3947550972
0.3939270501
0.3931021819
0.392280446
0.3914617966
0.3906461883
0.3898335764
0.3890239168
0.388217166
0.3874132812
0.38661222
0.3858139409
0.3850184026
0.3842255647
0.3834353872
0.3826478304
0.3818628553
0.3810804234
0.3803004964
0.3795230368
0.3787480074
0.3779753716
0.3772050936
0.3764371381
0.3756714702
0.3749080562
0.3741468624
0.373387856
0.3726310046
0.3718762764
0.3711236401
0.3703730646
0.3696245196
0.3688779748
0.3681334007
0.367390768
0.3666500477
0.3659112115
0.3651742314
0.3644390799
0.3637057298
0.3629741544
0.3622443276
0.3615162235
0.3607898168
0.3600650823
0.3593419955
0.358620532
0.3579006678
0.3571823793
0.3564656432
0.3557504366
0.3550367371
0.3543245224
0.3536137709
0.3529044613
0.3521965728
0.3514900847
0.3507849772
0.3500812305
0.3493788252
0.3486777425
0.3479779637
0.3472794706
0.3465822452
0.3458862698
0.3451915272
0.3444980003
0.3438056724
0.3431145269
0.3424245477
0.3417357188
0.3410480247
0.3403614498
0.3396759793
0.3389915981
0.338308289
0.3376260361
0.3369448283
0.336264654
0.335585499
0.3349073488
0.3342301899
0.333554009
0.3328787931
0.3322045294
0.3315312054
0.3308588089
0.3301873278
0.3295167503
0.3288470648
0.3281782601
0.3275103251
0.3268432489
0.3261770209
0.3255116307
0.324847068
0.3241833256
0.3235203981
0.3228582731
0.3221969369
0.3215363789
0.3208765901
0.3202175617
0.3195592851
0.3189017518
0.3182449535
0.3175888821
0.3169335296
0.3162788881
0.3156249499
0.3149717071
0.3143191523
0.313667278
0.3130160768
0.3123655415
0.3117156649
0.3110664399
0.3104178595
0.3097699168
0.3091226048
0.3084759168
0.3078298475
0.3071843916
0.3065395393
0.3058952824
0.3052516173
0.3046085387
0.3039660406
0.3033241163
0.3026827571
0.3020419578
0.3014017224
0.3007620479
0.3001229209
0.2994843289
0.2988462702
0.2982087479
0.297571748
0.296935259
0.2962992802
0.2956638106
0.2950288422
0.2943943653
0.2937603804
0.2931268907
0.2924938922
0.2918613785
0.2912293438
0.2905977832
0.2899667012
0.2893361056
0.2887059918
0.288076349
0.2874471673
0.2868184376
0.2861901519
0.2855623065
0.2849348995
0.284307927
0.2836813846
0.2830552693
0.2824295802
0.2818043157
0.281179468
0.2805550292
0.2799309974
0.2793073711
0.2786841484
0.2780613264
0.2774389024
0.2768168735
0.2761952367
0.2755739892
0.2749531282
0.2743326509
0.2737125544
0.273092836
0.2724734929
0.2718545224
0.2712359214
0.2706176853
0.2699998078
0.2693822875
0.2687651337
0.2681483505
0.2675319333
0.2669158772
0.2663001791
0.2656848358
0.2650698438
0.2644551993
0.2638408987
0.2632269384
0.2626133152
0.2620000259
0.2613870646
0.2607744249
0.2601621076
0.2595501146
0.258938445
0.2583270963
0.2577160662
0.2571053522
0.2564949521
0.2558848637
0.2552750847
0.2546656136
0.2540564493
0.2534475906
0.2528390351
0.2522307802
0.2516228236
0.2510151628
0.2504077956
0.2498007199
0.2491939335
0.2485874344
0.2479812207
0.2473752902
0.2467696412
0.2461642736
0.2455591874
0.2449543809
0.2443498504
0.2437455923
0.2431416059
0.2425378922
0.2419344522
0.2413312858
0.240728392
0.2401257691
0.2395234152
0.238921328
0.2383195051
0.2377179442
0.2371166428
0.2365155988
0.2359148099
0.2353142742
0.2347139897
0.2341139545
0.2335141669
0.2329146251
0.2323153276
0.2317162728
0.2311174592
0.2305188853
0.2299205497
0.2293224508
0.2287245872
0.2281269567
0.2275295567
0.2269323849
0.2263354424
0.2257387325
0.2251422537
0.2245460026
0.2239499764
0.2233541729
0.2227585904
0.2221632276
0.221568083
0.2209731554
0.2203784435
0.2197839462
0.2191896627
0.2185955928
0.2180017368
0.2174080948
0.2168146662
0.2162214506
0.215628447
0.2150356541
0.2144430706
0.2138506949
0.2132585249
0.2126665573
0.2120747892
0.2114832197
0.2108918487
0.2103006756
0.2097096995
0.2091189194
0.208528334
0.2079379419
0.2073477421
0.2067577336
0.2061679161
0.2055782891
0.2049888519
0.2043996029
0.2038105404
0.2032216623
0.2026329666
0.202044452
0.2014561173
0.2008679613
0.2002799828
0.1996921806
0.1991045537
0.1985171011
0.1979298219
0.1973427158
0.1967557823
0.1961690211
0.1955824317
0.1949960136
0.1944097661
0.1938236885
0.1932377797
0.192652039
0.1920664651
0.191481057
0.1908958134
0.1903107332
0.189725815
0.1891410575
0.1885564592
0.1879720183
0.1873877327
0.1868036011
0.1862196235
0.1856358003
0.1850521311
0.1844686144
0.1838852483
0.1833020314
0.1827189623
0.1821360396
0.1815532622
0.1809706291
0.1803881391
0.1798057914
0.1792235853
0.1786415201
0.1780595952
0.1774778102
0.1768961642
0.1763146568
0.1757332871
0.1751520545
0.1745709582
0.1739899973
0.1734091707
0.1728284774
0.1722479157
0.1716674843
0.1710871828
0.1705070111
0.1699269686
0.1693470546
0.1687672681
0.1681876078
0.1676080724
0.1670286607
0.1664493715
0.1658702037
0.1652911562
0.1647122276
0.1641334169
0.1635547227
0.1629761442
0.1623976802
0.1618193297
0.1612410917
0.1606629651
0.1600849489
0.1595070421
0.1589292434
0.1583515518
0.1577739659
0.157196484
0.1566191047
0.1560418269
0.1554646499
0.1548875734
0.1543105965
0.153733718
0.1531569363
0.15258025
0.1520036575
0.1514271572
0.1508507475
0.1502744271
0.1496981943
0.1491220478
0.1485459863
0.1479700082
0.1473941121
0.1468182967
0.1462425607
0.1456669027
0.1450913212
0.1445158145
0.143940381
0.1433650192
0.1427897277
0.1422145049
0.1416393493
0.1410642592
0.1404892327
0.1399142681
0.1393393636
0.1387645174
0.1381897277
0.1376149924
0.1370403093
0.1364656764
0.1358910912
0.1353165511
0.1347420537
0.1341675962
0.1335931762
0.1330187913
0.132444439
0.1318701173
0.1312958236
0.1307215552
0.1301473091
0.1295730822
0.1289988713
0.1284246732
0.1278504849
0.1272763031
0.1267021242
0.1261279449
0.1255537613
0.1249795697
0.1244053662
0.123831147
0.1232569081
0.1226826455
0.1221083549
0.1215340321
0.1209596722
0.1203852706
0.1198108222
0.119236322
0.1186617649
0.1180871458
0.1175124593
0.1169377001
0.1163628625
0.1157879411
0.1152129297
0.1146378219
0.1140626108
0.1134872893
0.1129118499
0.1123362849
0.1117605863
0.1111847459
0.1106087555
0.1100326065
0.10945629
0.1088797971
0.1083031185
0.1077262446
0.1071491655
0.1065718708
0.1059943498
0.1054165915
0.1048385846
0.1042603171
0.103681777
0.1031029515
0.1025238271
0.1019443902
0.1013646265
0.1007845214
0.1002040595
0.09962322499
0.09904200158
0.09846037228
0.09787831947
0.09729582489
0.09671286965
0.09612943415
0.09554549801
0.09496104009
0.09437603851
0.09379047054
0.09320431258
0.09261754011
0.09203012773
0.0914420491
0.09085327682
0.09026378246
0.08967353652
0.0890825084
0.08849066635
0.08789797735
0.08730440715
0.08670992022
0.08611447967
0.08551804716
0.0849205829
0.08432204559
0.08372239237
0.08312157869
0.08251955825
0.08191628305
0.08131170322
0.08070576691
0.08009842026
0.07948960738
0.07887927016
0.07826734822
0.0776537788
0.07703849672
0.07642143424
0.07580252091
0.0751816835
0.07455884587
0.07393392889
0.07330685025
0.07267752431
0.07204586198
0.07141177059
0.07077515371
0.07013591095
0.06949393779
0.06884912545
0.06820136067
0.06755052542
0.06689649676
0.06623914661
0.06557834148
0.06491394215
0.06424580347
0.06357377404
0.06289769589
0.06221740412
0.06153272653
0.06084348331
0.0601494866
0.05945053995
0.05874643797
0.05803696579
0.05732189854
0.05660100066
0.05587402535
0.05514071384
0.05440079474
0.05365398316
0.05289997978
0.05213847
0.05136912288
0.05059159002
0.04980550422
0.04901047821
0.04820610316
0.047391947
0.04656755253
0.04573243544
0.0448860821
0.04402794702
0.04315744994
0.04227397277
0.04137685609
0.04046539509
0.03953883496
0.03859636584
0.03763711696
0.03666014988
0.03566445067
0.03464892107
0.03361236804
0.0325534917
0.03147087111
0.03036294739
0.02922800387
0.02806414234
0.02686925433
0.02564098617
0.02437669643
0.02307340325
0.02172771833
0.02033576339
0.01889306329
0.01739440684
0.01583366235
0.01420352861
0.01249519144
0.01069783796
0.008797950171
0.00677825254
0.00461610105
0.002280808453
-0.0002709559708
-0.003096791589
-0.006241833922
-0.00970563905
-0.0141205409
0.764229869
0.734876771
0.7028747493
0.6774545686
0.6554858352
0.6349381028
0.6162781621
0.5997707831
0.5854498879
0.5736013368
0.5639564754
0.5557860879
0.5486471898
0.5423501283
0.5367683698
0.5317904269
0.52731799
0.52327968
0.5196157435
0.5162726273
0.5132041411
0.5103707357
0.5077385924
0.5052795082
0.5029695527
0.5007882153
0.4987181838
0.4967449333
0.4948560672
0.4930409657
0.4912906811
0.4895976454
0.4879553411
0.4863581364
0.4848012003
0.4832803899
0.481792109
0.4803332227
0.4789010357
0.4774932333
0.4761077884
0.4747429052
0.4733969994
0.4720686844
0.4707567487
0.4694601264
0.4681778782
0.4669091843
0.4656533294
0.4644096755
0.4631776442
0.4619567101
0.4607463996
0.4595462881
0.4583559963
0.4571751852
0.4560035522
0.4548408271
0.4536867661
0.4525411439
0.4514037486
0.4502743798
0.4491528487
0.4480389776
0.446932601
0.4458335657
0.444741731
0.4436569682
0.4425791575
0.4415081849
0.4404439388
0.4393863101
0.4383351909
0.4372904747
0.4362520575
0.4352198386
0.4341937224
0.4331736189
0.4321594433
0.4311511138
0.4301485497
0.4291516709
0.4281603967
0.4271746463
0.4261943389
0.4252193944
0.4242497339
0.423285281
0.4223259614
0.4213717036
0.4204224381
0.4194780968
0.4185386118
0.4176039155
0.41667394
0.4157486177
0.4148278816
0.4139116654
0.4129999044
0.4120925354
0.411189496
0.4102907254
0.4093961633
0.4085057501
0.4076194265
0.4067371337
0.4058588136
0.4049844087
0.4041138618
0.4032471166
0.4023841175
0.4015248094
0.4006691383
0.3998170507
0.3989684946
0.3981234184
0.3972817716
0.3964435044
0.3956085676
0.3947769126
0.3939484915
0.3931232568
0.3923011618
0.3914821604
0.3906662071
0.3898532568
0.3890432655
0.3882361893
0.3874319854
0.3866306112
0.3858320249
0.3850361853
0.3842430517
0.383452584
0.3826647424
0.3818794878
0.3810967814
0.380316585
0.3795388607
0.3787635712
0.3779906801
0.3772201511
0.376451949
0.375686039
0.3749223871
0.3741609596
0.3734017237
0.3726446468
0.3718896971
0.3711368432
0.370386054
0.3696372989
0.3688905477
0.3681457708
0.3674029386
0.3666620224
0.3659229935
0.365185824
0.3644504862
0.363716953
0.3629851976
0.3622551938
0.3615269157
0.3608003379
0.3600754352
0.359352183
0.3586305568
0.3579105327
0.3571920868
0.356475196
0.3557598372
0.3550459879
0.3543336259
0.3536227294
0.3529132772
0.3522052484
0.3514986224
0.3507933792
0.3500894991
0.3493869626
0.3486857508
0.347985845
0.3472872271
0.3465898788
0.3458937827
0.3451989213
0.3445052775
0.3438128346
0.343121576
0.3424314855
0.3417425472
0.3410547452
0.3403680642
0.3396824887
0.3389980034
0.3383145927
0.3376322421
0.3369509386
0.3362706693
0.3355914201
0.3349131772
0.3342359269
0.333559656
0.3328843514
0.3322100004
0.3315365905
0.3308641092
0.3301925447
0.3295218851
0.3288521187
0.3281832343
0.3275152208
0.3268480673
0.3261817629
0.3255162965
0.3248516567
0.3241878377
0.3235248342
0.3228626337
0.3222012211
0.3215405871
0.3208807232
0.3202216208
0.3195632712
0.3189056662
0.3182487972
0.3175926563
0.3169372353
0.3162825264
0.3156285218
0.3149752136
0.3143225944
0.3136706568
0.3130193932
0.3123687963
0.3117188591
0.3110695744
0.3104209352
0.3097729344
0.3091255655
0.3084788217
0.3078326969
0.3071871848
0.3065422776
0.3058979679
0.3052542509
0.3046111212
0.3039685731
0.3033266014
0.3026852039
0.3020443777
0.3014041117
0.300764396
0.3001252273
0.2994865956
0.298848492
0.2982109161
0.2975738656
0.2969373323
0.2963013115
0.2956657994
0.29503079
0.2943962784
0.2937622622
0.2931287401
0.2924957081
0.2918631602
0.2912310891
0.2905994832
0.2899683523
0.2893377142
0.2887075629
0.2880778843
0.2874486675
0.2868199039
0.2861915869
0.2855637121
0.2849362756
0.2843092732
0.2836827002
0.2830565544
0.2824308367
0.2818055452
0.2811806703
0.2805562029
0.2799321416
0.2793084877
0.2786852388
0.2780623914
0.2774399423
0.2768178887
0.2761962275
0.2755749559
0.2749540711
0.2743335702
0.2737134504
0.273093709
0.2724743433
0.2718553507
0.2712367282
0.2706184708
0.2700005695
0.2693830235
0.2687658441
0.2681490382
0.2675325989
0.2669165194
0.2663007969
0.265685429
0.2650704125
0.2644557436
0.2638414188
0.263227435
0.2626137893
0.2620004795
0.2613874988
0.2607748406
0.2601625059
0.2595504979
0.2589388142
0.2583274518
0.257716408
0.2571056805
0.2564952671
0.2558851654
0.2552753732
0.2546658892
0.2540567133
0.2534478435
0.252839277
0.2522310112
0.2516230436
0.251015372
0.250407994
0.2498009076
0.2491941107
0.2485876012
0.2479813772
0.2473754361
0.2467697758
0.2461643955
0.2455592958
0.2449544755
0.2443499304
0.2437456581
0.2431416595
0.2425379359
0.2419344872
0.2413313123
0.2407284099
0.2401257783
0.2395234156
0.2389213195
0.2383194876
0.2377179177
0.2371166073
0.2365155544
0.2359147568
0.2353142123
0.2347139191
0.2341138753
0.2335140793
0.2329145292
0.2323152234
0.2317161604
0.2311173387
0.2305187568
0.2299204132
0.2293223065
0.2287244352
0.2281267969
0.2275293876
0.2269322038
0.226335248
0.2257385232
0.2251420275
0.2245457576
0.2239497116
0.2233538883
0.2227582861
0.2221629037
0.2215677396
0.2209727927
0.2203780616
0.2197835449
0.2191892419
0.2185951528
0.2180012781
0.2174076175
0.2168141706
0.2162209368
0.2156279151
0.2150351044
0.2144425034
0.2138501107
0.2132579244
0.2126659412
0.2120741586
0.2114825758
0.2108911926
0.2103000078
0.2097090202
0.2091182287
0.208527632
0.2079372287
0.2073470176
0.2067569981
0.2061671698
0.2055775328
0.204988086
0.2043988275
0.2038097554
0.2032208673
0.2026321611
0.2020436361
0.2014552911
0.2008671247
0.2002791359
0.1996913235
0.1991036863
0.1985162234
0.1979289341
0.197341818
0.1967548748
0.196168104
0.195581505
0.1949950774
0.1944088204
0.1938227333
0.1932368151
0.1926510648
0.1920654815
0.191480064
0.190894811
0.1903097214
0.1897247939
0.1891400271
0.1885554196
0.1879709693
0.1873866738
0.1868025323
0.1862185457
0.1856347156
0.1850510401
0.1844675172
0.1838841449
0.1833009218
0.1827178466
0.1821349179
0.1815521345
0.1809694954
0.1803869996
0.1798046461
0.1792224342
0.1786403634
0.178058433
0.1774766425
0.1768949912
0.1763134783
0.1757321033
0.1751508654
0.1745697638
0.1739887976
0.1734079658
0.1728272671
0.1722466994
0.1716662616
0.1710859537
0.1705057756
0.1699257268
0.1693458063
0.1687660131
0.168186346
0.1676068036
0.1670273849
0.1664480889
0.1658689145
0.1652898602
0.1647109251
0.1641321077
0.1635534071
0.1629748221
0.1623963517
0.1618179949
0.1612397505
0.1606616177
0.1600835952
0.1595056821
0.1589278772
0.1583501793
0.157772587
0.1571950986
0.1566177127
0.1560404283
0.1554632452
0.1548861629
0.1543091803
0.1537322959
0.1531555082
0.1525788156
0.1520022167
0.1514257099
0.1508492939
0.150272967
0.1496967277
0.1491205749
0.1485445069
0.1479685224
0.14739262
0.1468167982
0.1462410558
0.1456653915
0.1450898036
0.1445142902
0.1439388498
0.1433634812
0.142788183
0.1422129535
0.1416377911
0.1410626941
0.1404876605
0.1399126888
0.1393377773
0.138762924
0.1381881271
0.1376133846
0.1370386943
0.1364640539
0.1358894612
0.1353149135
0.1347404083
0.1341659429
0.1335915149
0.1330171219
0.1324427617
0.1318684321
0.1312941305
0.1307198539
0.1301455994
0.1295713638
0.1289971441
0.1284229372
0.1278487398
0.1272745488
0.1267003606
0.1261261716
0.1255519782
0.1249777765
0.1244035627
0.1238293331
0.1232550835
0.12268081
0.1221065083
0.1215321739
0.1209578023
0.1203833885
0.1198089276
0.1192344146
0.1186598445
0.1180852121
0.1175105122
0.1169357392
0.1163608878
0.1157859522
0.1152109263
0.1146358035
0.1140605769
0.1134852393
0.1129097833
0.112334201
0.1117584846
0.1111826259
0.1106066166
0.1100304482
0.1094541118
0.1088775984
0.1083008988
0.1077240033
0.1071469018
0.1065695841
0.1059920394
0.1054142567
0.1048362246
0.1042579313
0.1036793644
0.1031005111
0.1025213581
0.1019418916
0.1013620974
0.1007819606
0.1002014661
0.09962059787
0.09903933959
0.09845767425
0.09787558417
0.09729305105
0.09671005595
0.09612657921
0.0955426004
0.09495809832
0.09437305102
0.09378743572
0.09320122875
0.09261440553
0.0920269406
0.09143880752
0.09084997883
0.09026042604
0.08967011955
0.08907902869
0.08848712161
0.08789436523
0.08730072519
0.08670616586
0.08611065027
0.08551413997
0.08491659505
0.08431797413
0.08371823421
0.08311733062
0.08251521697
0.08191184509
0.081307165
0.08070112471
0.08009367021
0.07948474545
0.07887429219
0.07826224986
0.07764855555
0.07703314389
0.07641594697
0.07579689412
0.07517591195
0.07455292409
0.0739278512
0.07330061075
0.07267111686
0.07203928019
0.07140500783
0.07076820307
0.07012876524
0.06948658953
0.06884156687
0.06819358366
0.06754252155
0.06688825725
0.06623066232
0.06556960288
0.06490493933
0.06423652608
0.06356421129
0.06288783656
0.06220723646
0.06152223831
0.06083266175
0.06013831835
0.05943901109
0.05873453392
0.05802467134
0.05730919775
0.05658787686
0.05586046109
0.05512669084
0.05438629382
0.0536389842
0.05288446169
0.05212241058
0.05135249882
0.05057437679
0.049787676
0.04899200777
0.04818696178
0.04737210436
0.04654697659
0.0457110923
0.04486393585
0.04400495956
0.04313358086
0.0422491791
0.04135109209
0.04043861201
0.03951098079
0.03856738502
0.03760695004
0.03662873319
0.03563171594
0.03461479501
0.0335767719
0.03251634084
0.03143207452
0.03032240725
0.02918561518
0.02801979264
0.02682282368
0.02559234757
0.02432571695
0.02301994637
0.02167164845
0.02027695393
0.01883141104
0.01732985722
0.01576625422
0.01413347419
0.01242302098
0.01062466547
0.008725969207
0.006711669301
0.004562895932
0.002256186933
-0.0002375184169
-0.002952650015
-0.005932732405
-0.009273103908
-0.0131150932
0.7076904029
0.700184118
0.68362837
0.664553013
0.6461365244
0.6288152234
0.6127324659
0.5982113419
0.5855744541
0.5748075848
0.5656335372
0.557648255
0.550576985
0.5442694444
0.5386398661
0.533599779
0.5290396027
0.5248978908
0.5211256991
0.5176751144
0.5145041189
0.5115731699
0.508847844
0.5063022136
0.5039134032
0.5016604924
0.4995256354
0.4974938947
0.4955521051
0.4936889489
0.4918952043
0.4901629273
0.4884850152
0.486855291
0.4852685639
0.4837204513
0.4822070928
0.4807250818
0.479271554
0.477844076
0.4764404744
0.475058793
0.4736973091
0.4723545321
0.4710291657
0.4697200533
0.4684261657
0.4671466233
0.465880671
0.4646276207
0.4633868297
0.4621577076
0.4609397226
0.4597324032
0.4585353316
0.4573481362
0.4561704875
0.4550020965
0.4538427033
0.4526920615
0.4515499339
0.4504160946
0.4492903302
0.4481724416
0.4470622451
0.4459595731
0.4448642754
0.4437762178
0.4426952762
0.441621329
0.4405542555
0.4394939358
0.4384402509
0.4373930828
0.4363523163
0.4353178417
0.4342895574
0.4332673713
0.4322511978
0.4312409541
0.4302365565
0.4292379202
0.4282449591
0.4272575868
0.426275717
0.425299264
0.4243281449
0.4233622802
0.4224015941
0.4214460144
0.4204954714
0.4195498963
0.4186092199
0.4176733718
0.4167422814
0.415815878
0.4148940918
0.4139768548
0.413064101
0.4121557662
0.4112517879
0.4103521044
0.409456655
0.4085653789
0.4076782156
0.4067951051
0.4059159879
0.4050408057
0.4041695006
0.4033020153
0.4024382931
0.4015782782
0.4007219157
0.399869152
0.3990199343
0.3981742109
0.397331931
0.3964930444
0.3956575013
0.3948252528
0.3939962504
0.3931704463
0.392347793
0.3915282441
0.3907117538
0.3898982767
0.3890877682
0.3882801844
0.3874754819
0.3866736182
0.3858745509
0.3850782388
0.384284641
0.383493717
0.3827054269
0.3819197313
0.3811365912
0.3803559679
0.3795778232
0.3788021197
0.3780288206
0.3772578896
0.3764892913
0.3757229909
0.3749589542
0.3741971477
0.3734375383
0.3726800935
0.3719247812
0.3711715699
0.3704204285
0.3696713262
0.3689242327
0.3681791181
0.3674359529
0.3666947079
0.3659553545
0.3652178646
0.3644822105
0.3637483649
0.3630163012
0.3622859929
0.3615574142
0.3608305396
0.3601053438
0.3593818022
0.3586598901
0.3579395835
0.3572208585
0.3565036918
0.3557880603
0.3550739413
0.3543613125
0.3536501523
0.3529404393
0.3522321526
0.3515252717
0.3508197764
0.350115647
0.3494128642
0.3487114089
0.3480112624
0.3473124065
0.346614823
0.3459184943
0.345223403
0.3445295319
0.3438368642
0.3431453834
0.3424550731
0.3417659174
0.3410779003
0.3403910064
0.3397052201
0.339020526
0.3383369086
0.337654353
0.3369728461
0.3362923747
0.3356129254
0.3349344842
0.3342570376
0.3335805725
0.3329050757
0.3322305346
0.3315569363
0.3308842688
0.3302125199
0.3295416777
0.3288717307
0.3282026676
0.3275344772
0.3268671487
0.3262006713
0.3255350348
0.3248702292
0.3242062471
0.3235430805
0.3228807177
0.3222191463
0.3215583562
0.3208983385
0.3202390842
0.3195805847
0.3189228312
0.3182658155
0.3176095292
0.3169539644
0.3162991131
0.3156449674
0.3149915197
0.3143387622
0.3136866877
0.3130352886
0.3123845575
0.3117344873
0.3110850709
0.3104363012
0.3097881713
0.3091406744
0.3084938039
0.3078475534
0.3072019166
0.3065568858
0.3059124543
0.3052686164
0.3046253667
0.3039826995
0.3033406096
0.302699092
0.3020581408
0.3014177464
0.3007779025
0.3001386066
0.2994998507
0.2988616267
0.2982239337
0.2975867671
0.296950119
0.296313984
0.2956783577
0.2950432347
0.2944086093
0.2937744788
0.293140842
0.292507696
0.2918750374
0.2912428653
0.2906111879
0.2899799994
0.2893492819
0.2887190301
0.2880892418
0.2874599125
0.2868310364
0.2862026078
0.2855746223
0.2849470763
0.2843199661
0.2836932881
0.2830670402
0.2824412214
0.2818158275
0.2811908514
0.2805662859
0.2799421278
0.2793183771
0.2786950315
0.2780720881
0.2774495437
0.2768273954
0.2762056405
0.275584276
0.2749632992
0.2743427072
0.2737224974
0.2731026671
0.2724832138
0.2718641355
0.2712454313
0.2706270974
0.2700091223
0.2693914958
0.2687742282
0.268157341
0.267540834
0.2669246945
0.2663089151
0.2656934914
0.2650784193
0.2644636952
0.2638493153
0.2632352764
0.2626215755
0.2620082089
0.2613951715
0.2607824592
0.2601700716
0.2595580092
0.2589462703
0.2583348525
0.2577237533
0.2571129706
0.2565025022
0.2558923457
0.2552824982
0.2546729587
0.2540637272
0.2534548017
0.2528461785
0.2522378554
0.2516298305
0.2510221019
0.2504146672
0.2498075244
0.2492006713
0.2485941058
0.2479878254
0.2473818268
0.246776109
0.2461706741
0.2455655215
0.2449606479
0.2443560476
0.2437517143
0.2431476539
0.2425438753
0.2419403761
0.2413371519
0.2407342003
0.2401315195
0.2395291075
0.238926962
0.2383250809
0.2377234618
0.2371221025
0.2365210009
0.235920155
0.2353195626
0.234719222
0.2341191312
0.2335192885
0.2329196923
0.2323203409
0.2317212327
0.2311223663
0.2305237402
0.2299253531
0.2293272039
0.2287292913
0.2281316122
0.227534161
0.2269369334
0.2263399361
0.225743174
0.225146641
0.2245503296
0.2239542402
0.223358373
0.2227627271
0.222167301
0.2215720936
0.2209771034
0.2203823288
0.2197877679
0.2191934211
0.2185992898
0.2180053743
0.2174116736
0.2168181869
0.2162249133
0.2156318519
0.2150390017
0.2144463616
0.2138539313
0.2132617089
0.2126696893
0.2120778698
0.2114862518
0.2108948356
0.2103036191
0.2097126003
0.2091217777
0.2085311501
0.207940716
0.2073504745
0.2067604249
0.2061705658
0.2055808977
0.2049914195
0.2044021294
0.2038130252
0.2032241049
0.202635368
0.2020468145
0.2014584424
0.2008702497
0.2002822347
0.199694396
0.1991067325
0.1985192432
0.1979319275
0.1973447858
0.1967578176
0.1961710224
0.1955843994
0.194997948
0.1944116674
0.1938255567
0.193239615
0.1926538412
0.1920682343
0.1914827932
0.1908975167
0.1903124037
0.189727453
0.1891426633
0.1885580327
0.1879735581
0.1873892347
0.1868050627
0.1862210455
0.1856371841
0.1850534757
0.1844699176
0.183886509
0.1833032494
0.1827201377
0.1821371727
0.1815543532
0.1809716781
0.1803891465
0.1798067574
0.1792245104
0.1786424048
0.1780604402
0.1774786158
0.1768969309
0.1763153848
0.1757339768
0.1751527061
0.1745715719
0.1739905735
0.1734097101
0.1728289801
0.1722483814
0.1716679147
0.1710875807
0.1705073783
0.1699273058
0.1693473617
0.1687675446
0.1681878525
0.1676082844
0.16702884
0.1664495183
0.165870318
0.165291238
0.1647122769
0.1641334338
0.1635547075
0.1629760971
0.1623976016
0.1618192199
0.1612409509
0.1606627936
0.1600847469
0.1595068098
0.1589289811
0.1583512594
0.1577736426
0.1571961286
0.1566187165
0.1560414064
0.1554641996
0.1548870965
0.1543100941
0.1537331897
0.1531563817
0.1525796687
0.1520030493
0.1514265219
0.1508500851
0.1502737375
0.1496974777
0.1491213043
0.1485452159
0.1479692111
0.1473932885
0.1468174466
0.1462416846
0.145666001
0.1450903935
0.144514859
0.143939397
0.143364007
0.1427886874
0.1422134365
0.1416382525
0.1410631334
0.1404880775
0.1399130835
0.1393381497
0.1387632744
0.1381884555
0.137613691
0.1370389787
0.1364643163
0.1358897013
0.1353151307
0.1347406019
0.1341661127
0.1335916607
0.1330172438
0.1324428605
0.1318685086
0.1312941848
0.1307198854
0.1301456075
0.1295713479
0.1289971039
0.1284228725
0.1278486506
0.127274435
0.1267002219
0.1261260078
0.1255517886
0.1249775605
0.1244033202
0.1238290639
0.1232547877
0.1226804874
0.1221061586
0.1215317967
0.1209573969
0.120382954
0.1198084632
0.1192339198
0.1186593188
0.1180846552
0.1175099237
0.116935119
0.116360236
0.1157852691
0.1152102116
0.1146350565
0.1140597965
0.1134844245
0.112908933
0.1123333141
0.11175756
0.1111816628
0.1106056142
0.1100294054
0.1094530279
0.1088764726
0.1082997303
0.1077227912
0.1071456451
0.1065682818
0.1059906903
0.1054128596
0.1048347785
0.1042564353
0.1036778173
0.1030989113
0.1025197039
0.1019401815
0.1013603298
0.100780134
0.1001995787
0.09961864808
0.09903732561
0.09845559422
0.09787343619
0.09729083313
0.09670776601
0.0961242151
0.09554015986
0.09495557902
0.09437045052
0.09378475147
0.09319845811
0.09261154574
0.0920239888
0.09143576072
0.09084683393
0.09025717981
0.08966676864
0.08907556961
0.08848355075
0.08789067881
0.08729691931
0.08670223646
0.08610659312
0.0855099507
0.08491226911
0.08431350679
0.08371362057
0.08311256558
0.08251029522
0.08190676116
0.08130191316
0.08069569904
0.08008806455
0.07947895342
0.07886830714
0.0782560649
0.07764216352
0.07702653736
0.07640911822
0.07578983514
0.07516861442
0.07454537937
0.07392005032
0.07329254439
0.07266277534
0.07203065346
0.07139608544
0.07075897416
0.07011921854
0.06947671333
0.06883134898
0.06818301145
0.06753158189
0.06687693649
0.06621894628
0.06555747684
0.06489238798
0.06422353351
0.06355076099
0.06287391133
0.06219281847
0.061507309
0.06081720184
0.0601223078
0.05942242907
0.0587173588
0.0580068806
0.05729076801
0.05656878381
0.05584067944
0.05510619433
0.05436505515
0.053616975
0.05286165246
0.05209877071
0.05132799649
0.05054897896
0.04976134838
0.0489647148
0.04815866659
0.04734276874
0.04651656101
0.04567955589
0.04483123644
0.0439710537
0.04309842388
0.04221272524
0.04131329461
0.04039942342
0.03947035313
0.03852527022
0.03756330045
0.03658350224
0.03558485909
0.03456627091
0.033526544
0.03246437953
0.03137835995
0.03026693316
0.029128394
0.02796086246
0.02676225778
0.02553026756
0.02426231107
0.02295549537
0.02160656255
0.02021182652
0.01876709783
0.01726759504
0.01570784274
0.01408155962
0.01238154834
0.01059961616
0.008726592492
0.006752589756
0.004667822571
0.002464669599
0.0001425324691
-0.002281093998
-0.004748835394
-0.007123877836
-0.009072915072
0.675040478
0.673848466
0.6648327434
0.6512165375
0.6367819409
0.6229952053
0.6099599052
0.5977786548
0.5867289442
0.5768485036
0.5680050496
0.5601328263
0.5531184811
0.5467581796
0.5409675042
0.5357330981
0.5310143187
0.5267402094
0.5228445549
0.5192779505
0.5160078279
0.5129893204
0.5101793803
0.5075517135
0.5050837388
0.5027549002
0.500548649
0.4984507984
0.4964464717
0.4945234714
0.4926739306
0.4908905803
0.4891660026
0.4874934657
0.4858674597
0.4842834249
0.4827370679
0.4812245938
0.4797431439
0.4782901984
0.4768632742
0.4754600629
0.4740785798
0.4727171889
0.4713745033
0.4700492412
0.468740243
0.4674465858
0.4661674996
0.4649022341
0.4636500557
0.4624102849
0.4611823155
0.459965621
0.4587597414
0.4575642633
0.4563788264
0.4552031315
0.4540369104
0.4528798907
0.4517317964
0.4505923591
0.4494613243
0.4483384554
0.4472235381
0.4461163817
0.4450168248
0.4439247348
0.4428399883
0.4417624558
0.4406920023
0.4396284918
0.4385717868
0.4375217487
0.4364782416
0.4354411392
0.4344103322
0.4333857297
0.4323672513
0.4313548166
0.4303483391
0.429347727