/*--------------------------------*- C++ -*----------------------------------*\
| =========                 |                                                 |
| \\      /  F ield         | OpenFOAM: The Open Source CFD Toolbox           |
|  \\    /   O peration     | Version:  2312                                  |
|   \\  /    A nd           | Website:  www.openfoam.com                      |
|    \\/     M anipulation  |                                                 |
\*---------------------------------------------------------------------------*/
FoamFile
{
    version     2.0;
    format      ascii;
    arch        "LSB;label=32;scalar=64";
    class       surfaceScalarField;
    location    "429";
    object      phi;
}
// * * * * * * * * * * * * * * * * * * * * * * * * * * * * * * * * * * * * * //

dimensions      [0 3 -1 0 0 0 0];

oriented        oriented;

internalField   nonuniform List<scalar> 
125957
(
1.886406894e-06
7.850538401e-08
1.758364154e-06
1.280427404e-07
1.62548938e-06
1.328747738e-07
1.494561884e-06
1.309274957e-07
1.370458174e-06
1.241037098e-07
1.255935666e-06
1.145225078e-07
1.15241575e-06
1.035199162e-07
1.060945265e-06
9.147048558e-08
9.817167163e-07
7.922854826e-08
9.13163617e-07
6.855309932e-08
8.531466505e-07
6.001696653e-08
8.00238066e-07
5.290858448e-08
7.53363277e-07
4.6874789e-08
7.117038582e-07
4.165941876e-08
6.74601369e-07
3.710248925e-08
6.414982499e-07
3.310311909e-08
6.119007286e-07
2.959752126e-08
5.853747042e-07
2.652602449e-08
5.615411241e-07
2.383358004e-08
5.400685916e-07
2.14725325e-08
5.20668504e-07
1.940008765e-08
5.030900846e-07
1.75784194e-08
4.871146616e-07
1.597542294e-08
4.725522575e-07
1.456240409e-08
4.592385267e-07
1.331373085e-08
4.47031068e-07
1.220745867e-08
4.358063516e-07
1.122471644e-08
4.254573305e-07
1.034902113e-08
4.158909347e-07
9.566395767e-09
4.070257412e-07
8.865193533e-09
3.987904572e-07
8.235283919e-09
3.91122744e-07
7.6677132e-09
3.839679246e-07
7.15481941e-09
3.772777761e-07
6.69014858e-09
3.710096194e-07
6.268156669e-09
3.651256359e-07
5.883983496e-09
3.595922057e-07
5.533430226e-09
3.543792848e-07
5.212920894e-09
3.494599862e-07
4.919298596e-09
3.448102848e-07
4.649701439e-09
3.404086908e-07
4.401594e-09
3.362358972e-07
4.172793508e-09
3.322744755e-07
3.961421713e-09
3.285086483e-07
3.765827262e-09
3.249241132e-07
3.58453505e-09
3.21507875e-07
3.416238281e-09
3.182480889e-07
3.259786049e-09
3.151339576e-07
3.114131289e-09
3.121556626e-07
2.978295011e-09
3.093042817e-07
2.851380922e-09
3.065716842e-07
2.7325975e-09
3.039504266e-07
2.621257562e-09
3.014336647e-07
2.516761977e-09
2.990150855e-07
2.418579166e-09
2.966888559e-07
2.326229563e-09
2.944495796e-07
2.239276361e-09
2.922922638e-07
2.157315761e-09
2.90212299e-07
2.079964815e-09
2.882054411e-07
2.006857873e-09
2.862677857e-07
1.937655478e-09
2.843957327e-07
1.872052969e-09
2.8258595e-07
1.809782637e-09
2.80835339e-07
1.750611049e-09
2.791410046e-07
1.694334439e-09
2.775002318e-07
1.640772814e-09
2.759104689e-07
1.589762834e-09
2.743693193e-07
1.541149615e-09
2.728745402e-07
1.494779112e-09
2.714240428e-07
1.450497374e-09
2.700158866e-07
1.408156241e-09
2.68648268e-07
1.367618618e-09
2.673195069e-07
1.328761107e-09
2.660280314e-07
1.291475465e-09
2.647723626e-07
1.255668817e-09
2.635510986e-07
1.221264003e-09
2.623629037e-07
1.188194941e-09
2.61206503e-07
1.156400695e-09
2.600806845e-07
1.125818439e-09
2.589843032e-07
1.096381277e-09
2.57916284e-07
1.068019237e-09
2.5687562e-07
1.040664002e-09
2.55861368e-07
1.014252056e-09
2.548726407e-07
9.887272138e-10
2.539086002e-07
9.640405466e-10
2.529684494e-07
9.401508405e-10
2.520514254e-07
9.170239812e-10
2.511567947e-07
8.946306439e-10
2.502838506e-07
8.729441944e-10
2.49431913e-07
8.519375628e-10
2.486003311e-07
8.315819316e-10
2.477884852e-07
8.118458734e-10
2.469957882e-07
7.92696968e-10
2.462216849e-07
7.741033665e-10
2.454656486e-07
7.560362865e-10
2.447271777e-07
7.384709238e-10
2.440057906e-07
7.213870236e-10
2.433010232e-07
7.04767425e-10
2.426124262e-07
6.885969972e-10
2.419395652e-07
6.728610382e-10
2.412820204e-07
6.575448249e-10
2.406393877e-07
6.426326716e-10
2.400112794e-07
6.281083198e-10
2.393973241e-07
6.139553166e-10
2.387971658e-07
6.001583065e-10
2.382104626e-07
5.867031351e-10
2.376368855e-07
5.735771179e-10
2.37076117e-07
5.607684769e-10
2.365278506e-07
5.482664532e-10
2.359917898e-07
5.360608156e-10
2.354676476e-07
5.241421347e-10
2.349551457e-07
5.125019259e-10
2.344540133e-07
5.011323819e-10
2.339639869e-07
4.900264546e-10
2.334848098e-07
4.791771096e-10
2.330162325e-07
4.685772368e-10
2.325580132e-07
4.582193878e-10
2.321099169e-07
4.480962397e-10
2.316717165e-07
4.382004229e-10
2.312431917e-07
4.28524841e-10
2.30824129e-07
4.190626275e-10
2.304143215e-07
4.098075717e-10
2.300135676e-07
4.007538232e-10
2.296216717e-07
3.91895961e-10
2.29238443e-07
3.832287214e-10
2.288636957e-07
3.747472422e-10
2.284972489e-07
3.664467738e-10
2.281389261e-07
3.583228008e-10
2.277885553e-07
3.503708466e-10
2.274459686e-07
3.425867178e-10
2.271110024e-07
3.349662371e-10
2.26783497e-07
3.275053435e-10
2.264632971e-07
3.201999063e-10
2.261502512e-07
3.130459593e-10
2.258442116e-07
3.060395042e-10
2.255450349e-07
2.991767034e-10
2.252525811e-07
2.924538477e-10
2.249667134e-07
2.858676806e-10
2.246872982e-07
2.794152445e-10
2.244142042e-07
2.730939516e-10
2.241473027e-07
2.669015262e-10
2.238864669e-07
2.60835776e-10
2.236315723e-07
2.548946418e-10
2.233824964e-07
2.490758987e-10
2.231391192e-07
2.433772154e-10
2.229013231e-07
2.377960644e-10
2.226689932e-07
2.323299496e-10
2.224420169e-07
2.269762692e-10
2.222202845e-07
2.217324181e-10
2.220036888e-07
2.165957031e-10
2.217921252e-07
2.115635536e-10
2.215854918e-07
2.066334253e-10
2.213836889e-07
2.018029243e-10
2.211866192e-07
1.970697359e-10
2.209941874e-07
1.924317939e-10
2.208063002e-07
1.87887149e-10
2.206228662e-07
1.834340261e-10
2.204437955e-07
1.790706993e-10
2.202689999e-07
1.747955846e-10
2.200983928e-07
1.706070711e-10
2.199318893e-07
1.665035501e-10
2.19769406e-07
1.624833097e-10
2.196108613e-07
1.585446554e-10
2.194561755e-07
1.546858097e-10
2.193052705e-07
1.509049985e-10
2.191580701e-07
1.472004186e-10
2.190144997e-07
1.435703991e-10
2.188744864e-07
1.400133361e-10
2.187379586e-07
1.365277527e-10
2.186048463e-07
1.331123073e-10
2.184750806e-07
1.297657353e-10
2.183485937e-07
1.264869431e-10
2.182253188e-07
1.232748972e-10
2.181051901e-07
1.201286294e-10
2.17988143e-07
1.170471228e-10
2.178741137e-07
1.140293601e-10
2.177630394e-07
1.110742282e-10
2.176548589e-07
1.081805748e-10
2.175495117e-07
1.053471768e-10
2.174469388e-07
1.025728434e-10
2.173470825e-07
9.985635365e-11
2.17249886e-07
9.719649931e-11
2.171552939e-07
9.459203738e-11
2.170632522e-07
9.204177017e-11
2.169737077e-07
8.95444885e-11
2.168866087e-07
8.709901804e-11
2.168019045e-07
8.470418229e-11
2.167195456e-07
8.235887193e-11
2.166394836e-07
8.006198463e-11
2.165616712e-07
7.781246058e-11
2.164860619e-07
7.560926067e-11
2.164126104e-07
7.345146945e-11
2.163412721e-07
7.133833509e-11
2.162720025e-07
6.926956724e-11
2.162047567e-07
6.724581906e-11
2.161394895e-07
6.526718327e-11
2.160761619e-07
6.332760103e-11
2.160147422e-07
6.1419743e-11
2.159551967e-07
5.954548703e-11
2.158974873e-07
5.770944417e-11
2.158415754e-07
5.591184216e-11
2.157874237e-07
5.415176162e-11
2.157349954e-07
5.242826715e-11
2.15684255e-07
5.074044581e-11
2.156351675e-07
4.908745848e-11
2.15587699e-07
4.74685219e-11
2.155418161e-07
4.588293112e-11
2.15497486e-07
4.433002778e-11
2.154546768e-07
4.280922256e-11
2.154133569e-07
4.131993992e-11
2.153734953e-07
3.986160629e-11
2.153350617e-07
3.843361159e-11
2.152980263e-07
3.703536221e-11
2.1526236e-07
3.566636179e-11
2.152280334e-07
3.432651471e-11
2.151950168e-07
3.301662141e-11
2.151632782e-07
3.173864077e-11
2.151327934e-07
3.048476622e-11
2.15103554e-07
2.923948516e-11
2.150755354e-07
2.80186189e-11
2.150487047e-07
2.683070143e-11
2.150230319e-07
2.56727319e-11
2.149984905e-07
2.454144514e-11
2.149750557e-07
2.343482292e-11
2.149527042e-07
2.235151405e-11
2.149314137e-07
2.12905334e-11
2.149111625e-07
2.025111275e-11
2.148919299e-07
1.923262394e-11
2.148736954e-07
1.823450614e-11
2.148564392e-07
1.725624543e-11
2.148401418e-07
1.629734076e-11
2.148247845e-07
1.535730126e-11
2.148103489e-07
1.443563424e-11
2.14796817e-07
1.353186351e-11
2.147841715e-07
1.264552396e-11
2.147723953e-07
1.177617124e-11
2.14761472e-07
1.092337404e-11
2.147513853e-07
1.008671778e-11
2.147421195e-07
9.265764099e-12
2.147336595e-07
8.45998201e-12
2.14725991e-07
7.668518796e-12
2.147191005e-07
6.890444004e-12
2.147129716e-07
6.128943246e-12
2.147075842e-07
5.387376613e-12
2.147029231e-07
4.661123443e-12
2.146989781e-07
3.94501094e-12
2.146957385e-07
3.239596854e-12
2.146931926e-07
2.545840392e-12
2.146913308e-07
1.861887624e-12
2.14690151e-07
1.179702328e-12
2.146896743e-07
4.767668736e-13
2.146899295e-07
-2.551844188e-13
2.146908953e-07
-9.658795066e-13
2.146925181e-07
-1.622796377e-12
2.146947801e-07
-2.261990901e-12
2.146976679e-07
-2.88775256e-12
2.147011292e-07
-3.461345502e-12
2.147051153e-07
-3.98605864e-12
2.147096073e-07
-4.491959118e-12
2.14714605e-07
-4.997779599e-12
2.147201045e-07
-5.499444858e-12
2.147260938e-07
-5.989254405e-12
2.147325661e-07
-6.472371266e-12
2.147395306e-07
-6.964518765e-12
2.147469961e-07
-7.46543862e-12
2.147549584e-07
-7.962308943e-12
2.14763409e-07
-8.450631459e-12
2.147723411e-07
-8.932073345e-12
2.147817489e-07
-9.407804249e-12
2.147916183e-07
-9.869337808e-12
2.148019547e-07
-1.033644804e-11
2.148127837e-07
-1.082900494e-11
2.14824106e-07
-1.132226022e-11
2.148359e-07
-1.179394957e-11
2.148481377e-07
-1.223774327e-11
2.148607956e-07
-1.265786265e-11
2.148738589e-07
-1.306331602e-11
2.148873167e-07
-1.345771583e-11
2.149011561e-07
-1.383939996e-11
2.149153642e-07
-1.420808786e-11
2.149299288e-07
-1.456462805e-11
2.14944844e-07
-1.491515219e-11
2.14960117e-07
-1.527303187e-11
2.149757546e-07
-1.563754755e-11
2.149917478e-07
-1.599324673e-11
2.150080713e-07
-1.632346455e-11
2.150247086e-07
-1.663732709e-11
2.150416565e-07
-1.694785631e-11
2.150589137e-07
-1.725718174e-11
2.150764777e-07
-1.756401385e-11
2.150943451e-07
-1.78674215e-11
2.151125121e-07
-1.816696445e-11
2.151309745e-07
-1.846242695e-11
2.151497282e-07
-1.875374735e-11
2.151687692e-07
-1.904099764e-11
2.151880937e-07
-1.932439997e-11
2.15207698e-07
-1.96043548e-11
2.152275796e-07
-1.988155937e-11
2.152477368e-07
-2.015725371e-11
2.152681704e-07
-2.0433549e-11
2.152888832e-07
-2.07127986e-11
2.153098755e-07
-2.099227424e-11
2.153311243e-07
-2.124884062e-11
2.153525937e-07
-2.146935955e-11
2.153742897e-07
-2.169604671e-11
2.15396232e-07
-2.194227668e-11
2.154184293e-07
-2.219730221e-11
2.154408835e-07
-2.245419155e-11
2.15463594e-07
-2.271053966e-11
2.15486558e-07
-2.296398219e-11
2.155097702e-07
-2.321218578e-11
2.155332237e-07
-2.345354253e-11
2.155569111e-07
-2.368741174e-11
2.155808252e-07
-2.391404407e-11
2.156049599e-07
-2.413466449e-11
2.156293121e-07
-2.435226178e-11
2.15653874e-07
-2.456191769e-11
2.156786254e-07
-2.475133969e-11
2.157035621e-07
-2.493672989e-11
2.157286885e-07
-2.512641367e-11
2.157540059e-07
-2.531735985e-11
2.157795126e-07
-2.550674994e-11
2.15805206e-07
-2.569334855e-11
2.158310826e-07
-2.587661282e-11
2.158571388e-07
-2.605617755e-11
2.158833702e-07
-2.623139179e-11
2.159097712e-07
-2.640107053e-11
2.159363375e-07
-2.656628871e-11
2.159630718e-07
-2.673431873e-11
2.159899775e-07
-2.690568067e-11
2.16017055e-07
-2.70775084e-11
2.160443025e-07
-2.724744598e-11
2.16071717e-07
-2.741453518e-11
2.160992955e-07
-2.757851142e-11
2.161270348e-07
-2.773933318e-11
2.161549319e-07
-2.789704921e-11
2.161829835e-07
-2.805167849e-11
2.162111866e-07
-2.820305714e-11
2.162395371e-07
-2.835053022e-11
2.162680299e-07
-2.849274976e-11
2.162966594e-07
-2.862954484e-11
2.1632543e-07
-2.877066884e-11
2.163543524e-07
-2.892238055e-11
2.16383432e-07
-2.907959345e-11
2.164126638e-07
-2.923187673e-11
2.164420286e-07
-2.936475083e-11
2.164715131e-07
-2.948449676e-11
2.165011179e-07
-2.960483898e-11
2.165308505e-07
-2.973262673e-11
2.16560718e-07
-2.986755712e-11
2.165907252e-07
-3.000712876e-11
2.16620874e-07
-3.014887784e-11
2.166511648e-07
-3.029071816e-11
2.166815958e-07
-3.043105667e-11
2.167121646e-07
-3.056880165e-11
2.167428679e-07
-3.070330551e-11
2.167737022e-07
-3.083424438e-11
2.168046637e-07
-3.096154035e-11
2.16835749e-07
-3.108526235e-11
2.168669546e-07
-3.120557702e-11
2.168982773e-07
-3.132270813e-11
2.169297142e-07
-3.143689782e-11
2.169612626e-07
-3.154841273e-11
2.169929201e-07
-3.165751743e-11
2.170246845e-07
-3.176449048e-11
2.170565541e-07
-3.186962819e-11
2.170885274e-07
-3.19733047e-11
2.171206034e-07
-3.207602663e-11
2.17152782e-07
-3.21785677e-11
2.171850639e-07
-3.228198654e-11
2.172174508e-07
-3.23868904e-11
2.172499413e-07
-3.249048823e-11
2.172825245e-07
-3.258323975e-11
2.173151825e-07
-3.265793053e-11
2.173479106e-07
-3.272812736e-11
2.173807305e-07
-3.281988825e-11
2.174136518e-07
-3.292127843e-11
2.174466733e-07
-3.302149267e-11
2.174797904e-07
-3.311711771e-11
2.175129992e-07
-3.320880591e-11
2.175462969e-07
-3.329769058e-11
2.175796815e-07
-3.338455457e-11
2.176131514e-07
-3.346979682e-11
2.176467047e-07
-3.355327266e-11
2.176803386e-07
-3.363389927e-11
2.177140481e-07
-3.37094673e-11
2.177478282e-07
-3.378006144e-11
2.177816778e-07
-3.384953001e-11
2.178155993e-07
-3.392149789e-11
2.178495967e-07
-3.399732996e-11
2.178836737e-07
-3.40769582e-11
2.179178335e-07
-3.415984391e-11
2.179520789e-07
-3.424535853e-11
2.17986412e-07
-3.433308024e-11
2.180208351e-07
-3.442310953e-11
2.180553513e-07
-3.451619811e-11
2.180899628e-07
-3.461145255e-11
2.181246629e-07
-3.470013365e-11
2.181594393e-07
-3.47764464e-11
2.181942867e-07
-3.484740838e-11
2.182292046e-07
-3.491788249e-11
2.182641936e-07
-3.498907672e-11
2.18299254e-07
-3.506042188e-11
2.18334385e-07
-3.51310092e-11
2.183695847e-07
-3.519976045e-11
2.184048503e-07
-3.526554538e-11
2.184401783e-07
-3.532809711e-11
2.184755671e-07
-3.538881708e-11
2.185110186e-07
-3.545147069e-11
2.18546538e-07
-3.551939731e-11
2.185821302e-07
-3.559227633e-11
2.186177983e-07
-3.566808015e-11
2.186535429e-07
-3.574457752e-11
2.186893613e-07
-3.581849647e-11
2.187252483e-07
-3.588699376e-11
2.187612001e-07
-3.595178283e-11
2.187972144e-07
-3.601433916e-11
2.188332896e-07
-3.607517181e-11
2.188694238e-07
-3.613423543e-11
2.189056149e-07
-3.619114973e-11
2.189418602e-07
-3.624532051e-11
2.189781565e-07
-3.629633256e-11
2.190145012e-07
-3.634476947e-11
2.190508934e-07
-3.639219996e-11
2.190873336e-07
-3.644017685e-11
2.191238232e-07
-3.648960291e-11
2.19160364e-07
-3.65408611e-11
2.191969581e-07
-3.659402665e-11
2.192336071e-07
-3.664899624e-11
2.192703126e-07
-3.670552631e-11
2.193070759e-07
-3.676331282e-11
2.19343898e-07
-3.682203321e-11
2.193807794e-07
-3.688141796e-11
2.194177207e-07
-3.694126712e-11
2.194547222e-07
-3.700151083e-11
2.194917845e-07
-3.706224705e-11
2.195289084e-07
-3.712378623e-11
2.195660948e-07
-3.7186393e-11
2.196033442e-07
-3.724932337e-11
2.196406533e-07
-3.730909546e-11
2.196780136e-07
-3.736018338e-11
2.19715415e-07
-3.740142764e-11
2.197528552e-07
-3.744013036e-11
2.197903415e-07
-3.748623933e-11
2.1982788e-07
-3.753852097e-11
2.198654726e-07
-3.75925979e-11
2.199031184e-07
-3.764574593e-11
2.199408155e-07
-3.769711916e-11
2.199785621e-07
-3.774654581e-11
2.200163561e-07
-3.779403585e-11
2.200541957e-07
-3.783962195e-11
2.200920789e-07
-3.788326899e-11
2.201300037e-07
-3.792482817e-11
2.20167968e-07
-3.796436634e-11
2.202059704e-07
-3.800244099e-11
2.202440102e-07
-3.803989066e-11
2.202820876e-07
-3.807742214e-11
2.20320203e-07
-3.811550294e-11
2.203583574e-07
-3.815440317e-11
2.203965516e-07
-3.819428573e-11
2.204347868e-07
-3.823523334e-11
2.204730641e-07
-3.827731575e-11
2.205113847e-07
-3.832061501e-11
2.2054975e-07
-3.836527482e-11
2.205881613e-07
-3.841131888e-11
2.206266188e-07
-3.845752942e-11
2.206651189e-07
-3.850006497e-11
2.207036573e-07
-3.853839392e-11
2.207422338e-07
-3.857647087e-11
2.207808512e-07
-3.861740015e-11
2.208195132e-07
-3.866203229e-11
2.208582231e-07
-3.870997065e-11
2.208969832e-07
-3.876014026e-11
2.209357938e-07
-3.881067907e-11
2.209746538e-07
-3.886006707e-11
2.210135621e-07
-3.890838889e-11
2.210525182e-07
-3.895610374e-11
2.210915214e-07
-3.900325379e-11
2.211305709e-07
-3.904962935e-11
2.211696659e-07
-3.909498694e-11
2.212088051e-07
-3.913921369e-11
2.212479875e-07
-3.918240692e-11
2.212872124e-07
-3.922489103e-11
2.213264794e-07
-3.926706789e-11
2.213657888e-07
-3.930932559e-11
2.214051408e-07
-3.935200604e-11
2.214445363e-07
-3.939546515e-11
2.214839764e-07
-3.944007481e-11
2.215234627e-07
-3.948623144e-11
2.21562997e-07
-3.953421442e-11
2.216025809e-07
-3.95838012e-11
2.216422145e-07
-3.963352933e-11
2.216818953e-07
-3.968070769e-11
2.217216189e-07
-3.972348014e-11
2.217613814e-07
-3.97624295e-11
2.218011827e-07
-3.980120696e-11
2.218410269e-07
-3.984414651e-11
2.218809188e-07
-3.989184676e-11
2.219208615e-07
-3.994256767e-11
2.219608562e-07
-3.999471164e-11
2.220009036e-07
-4.004737598e-11
2.220410037e-07
-4.010005934e-11
2.220811561e-07
-4.015243777e-11
2.221213604e-07
-4.020435155e-11
2.221616162e-07
-4.025577906e-11
2.22201923e-07
-4.030684396e-11
2.222422806e-07
-4.035774265e-11
2.222826892e-07
-4.040868052e-11
2.223231489e-07
-4.045977814e-11
2.223636599e-07
-4.051110081e-11
2.224042227e-07
-4.056291485e-11
2.22444839e-07
-4.061634179e-11
2.224855114e-07
-4.067250873e-11
2.225262423e-07
-4.073096927e-11
2.22567032e-07
-4.078975189e-11
2.226078807e-07
-4.084871895e-11
2.226487898e-07
-4.090910378e-11
2.226897617e-07
-4.097189623e-11
2.227307992e-07
-4.103738623e-11
2.227719046e-07
-4.110529597e-11
2.228130795e-07
-4.11748971e-11
2.228543253e-07
-4.124568367e-11
2.228956431e-07
-4.131782091e-11
2.229370349e-07
-4.139177957e-11
2.229785028e-07
-4.146792934e-11
2.230200493e-07
-4.154655153e-11
2.230616771e-07
-4.162791852e-11
2.231033893e-07
-4.171225336e-11
2.231451887e-07
-4.179960215e-11
2.231870781e-07
-4.188952825e-11
2.232290589e-07
-4.198093086e-11
2.232711313e-07
-4.207253621e-11
2.233132948e-07
-4.216360459e-11
2.233555487e-07
-4.225406893e-11
2.233978933e-07
-4.234468071e-11
2.234403306e-07
-4.243739242e-11
2.234828651e-07
-4.253455188e-11
2.235255019e-07
-4.263687509e-11
2.235682455e-07
-4.274361788e-11
2.236110992e-07
-4.285379575e-11
2.236540661e-07
-4.296678657e-11
2.236971485e-07
-4.308243735e-11
2.237403498e-07
-4.320125799e-11
2.23783674e-07
-4.332402765e-11
2.238271254e-07
-4.345133631e-11
2.23870709e-07
-4.358347142e-11
2.239144295e-07
-4.372038504e-11
2.239582912e-07
-4.386150352e-11
2.240022977e-07
-4.400632232e-11
2.24046453e-07
-4.415515728e-11
2.240907621e-07
-4.430887462e-11
2.241352305e-07
-4.446831125e-11
2.241798648e-07
-4.463408093e-11
2.242246715e-07
-4.48066073e-11
2.242696576e-07
-4.498599263e-11
2.243148295e-07
-4.5171786e-11
2.243601926e-07
-4.536297445e-11
2.244057514e-07
-4.555878352e-11
2.244515105e-07
-4.575902029e-11
2.244974743e-07
-4.596384822e-11
2.245436479e-07
-4.617354194e-11
2.245900365e-07
-4.638861722e-11
2.246366465e-07
-4.661011818e-11
2.246834863e-07
-4.683984176e-11
2.247305662e-07
-4.707995464e-11
2.247778978e-07
-4.733166246e-11
2.248254927e-07
-4.759496199e-11
2.248733621e-07
-4.786944273e-11
2.249215168e-07
-4.815472292e-11
2.249699671e-07
-4.845035944e-11
2.250187229e-07
-4.875575905e-11
2.250677937e-07
-4.907078878e-11
2.251171896e-07
-4.939580276e-11
2.251669208e-07
-4.973119107e-11
2.252169982e-07
-5.007725734e-11
2.252674328e-07
-5.043454878e-11
2.253182367e-07
-5.080388922e-11
2.253694228e-07
-5.118615696e-11
2.254210049e-07
-5.158205831e-11
2.254729969e-07
-5.199214636e-11
2.255254137e-07
-5.241688751e-11
2.255782703e-07
-5.285669887e-11
2.256315824e-07
-5.331217726e-11
2.256853667e-07
-5.378442168e-11
2.257396415e-07
-5.427484581e-11
2.257944256e-07
-5.478427249e-11
2.258497385e-07
-5.531289644e-11
2.259055993e-07
-5.586090823e-11
2.259620282e-07
-5.642885062e-11
2.260190457e-07
-5.701747314e-11
2.260766734e-07
-5.762761601e-11
2.261349336e-07
-5.82601358e-11
2.261938497e-07
-5.891593979e-11
2.262534458e-07
-5.959596227e-11
2.263137472e-07
-6.030120375e-11
2.263747801e-07
-6.103268795e-11
2.264365717e-07
-6.179148667e-11
2.264991506e-07
-6.257869173e-11
2.265625462e-07
-6.339546191e-11
2.266267894e-07
-6.42429792e-11
2.26691912e-07
-6.51224746e-11
2.267579473e-07
-6.603519923e-11
2.268249299e-07
-6.698247618e-11
2.268928957e-07
-6.796565688e-11
2.269618819e-07
-6.898615018e-11
2.270319274e-07
-7.004539286e-11
2.271030723e-07
-7.114490521e-11
2.271753586e-07
-7.228624571e-11
2.272488297e-07
-7.347103625e-11
2.273235307e-07
-7.470096687e-11
2.273995085e-07
-7.597777084e-11
2.274768117e-07
-7.730328203e-11
2.275554911e-07
-7.867938863e-11
2.276355992e-07
-8.010806449e-11
2.277171905e-07
-8.159133836e-11
2.278003218e-07
-8.31313562e-11
2.278850521e-07
-8.47303317e-11
2.279714426e-07
-8.639058059e-11
2.28059557e-07
-8.811448778e-11
2.281494615e-07
-8.990457529e-11
2.282412248e-07
-9.176344928e-11
2.283349185e-07
-9.369383768e-11
2.28430617e-07
-9.569855501e-11
2.285283974e-07
-9.778057678e-11
2.286283403e-07
-9.994298242e-11
2.287305291e-07
-1.021889972e-10
2.28835051e-07
-1.045219544e-10
2.289419963e-07
-1.069453779e-10
2.290514591e-07
-1.094629214e-10
2.291635375e-07
-1.120784162e-10
2.292783333e-07
-1.147958321e-10
2.293959527e-07
-1.176193712e-10
2.295165062e-07
-1.205534028e-10
2.296401087e-07
-1.236025081e-10
2.297668803e-07
-1.267714955e-10
2.298969457e-07
-1.300653599e-10
2.300304351e-07
-1.33489387e-10
2.301674841e-07
-1.370490783e-10
2.303082342e-07
-1.407502156e-10
2.304528329e-07
-1.445988153e-10
2.30601434e-07
-1.486012534e-10
2.307541981e-07
-1.527641897e-10
2.309112925e-07
-1.570946453e-10
2.310728923e-07
-1.615999558e-10
2.312391801e-07
-1.662879134e-10
2.314103466e-07
-1.711666858e-10
2.315865914e-07
-1.762449059e-10
2.31768123e-07
-1.815316253e-10
2.319551594e-07
-1.870364801e-10
2.32147929e-07
-1.92769608e-10
2.323466707e-07
-1.987417587e-10
2.32551635e-07
-2.049642511e-10
2.327630843e-07
-2.114491723e-10
2.329812937e-07
-2.182092961e-10
2.33206552e-07
-2.252582235e-10
2.334391626e-07
-2.3261035e-10
2.336794439e-07
-2.402811109e-10
2.33927731e-07
-2.482869093e-10
2.341843766e-07
-2.56645298e-10
2.344497518e-07
-2.653749642e-10
2.347242481e-07
-2.744960364e-10
2.350082783e-07
-2.840300313e-10
2.353022786e-07
-2.940000759e-10
2.356067099e-07
-3.044310782e-10
2.359220598e-07
-3.153497883e-10
2.362488451e-07
-3.267852281e-10
2.365876139e-07
-3.387687115e-10
2.369389482e-07
-3.513342257e-10
2.373034668e-07
-3.645185709e-10
2.376818288e-07
-3.783619597e-10
2.380747369e-07
-3.929081605e-10
2.384829419e-07
-4.082050756e-10
2.389072469e-07
-4.243050654e-10
2.393485127e-07
-4.412658346e-10
2.398076634e-07
-4.591508216e-10
2.402856934e-07
-4.780301382e-10
2.407836745e-07
-4.979812598e-10
2.413027647e-07
-5.190904384e-10
2.418442182e-07
-5.414536053e-10
2.42409396e-07
-5.651780137e-10
2.429997796e-07
-5.903836984e-10
2.436169854e-07
-6.172059308e-10
2.442627825e-07
-6.457972456e-10
2.44939113e-07
-6.763305632e-10
2.456481153e-07
-7.090023704e-10
2.463921526e-07
-7.440374464e-10
2.471738461e-07
-7.816935237e-10
2.479961137e-07
-8.222677859e-10
2.488622183e-07
-8.661046661e-10
2.497758233e-07
-9.136051549e-10
2.507410627e-07
-9.652395554e-10
2.517626247e-07
-1.021562191e-09
2.528458558e-07
-1.083231312e-09
2.539968894e-07
-1.151033833e-09
2.552228083e-07
-1.225919068e-09
2.565318495e-07
-1.309041465e-09
2.579336686e-07
-1.40181932e-09
2.594396818e-07
-1.506013391e-09
2.610635191e-07
-1.623837548e-09
2.62821631e-07
-1.758112158e-09
2.647341174e-07
-1.912486538e-09
2.668258812e-07
-2.091764012e-09
2.691282746e-07
-2.302393541e-09
2.716814987e-07
-2.553224267e-09
2.745382013e-07
-2.856702795e-09
2.777690183e-07
-3.230817166e-09
2.814713638e-07
-3.70234563e-09
2.857837697e-07
-4.312405922e-09
2.90910006e-07
-5.126236389e-09
2.971613718e-07
-6.251365815e-09
3.050337999e-07
-7.87242808e-09
3.153466386e-07
-1.031283872e-08
3.295411128e-07
-1.41944742e-08
3.511653389e-07
-2.162422597e-08
-4.34326977e-08
3.945980367e-07
1.99352038e-06
4.98972819e-08
2.007919544e-06
1.136435761e-07
1.995592516e-06
1.452018018e-07
1.966219852e-06
1.603001598e-07
1.92476681e-06
1.65556752e-07
1.874969999e-06
1.643193191e-07
1.820378355e-06
1.581115604e-07
1.76328011e-06
1.485687307e-07
1.704676314e-06
1.378323437e-07
1.646070734e-06
1.271586795e-07
1.589014817e-06
1.170728833e-07
1.534274258e-06
1.076491431e-07
1.48224532e-06
9.890372749e-08
1.433096138e-06
9.080860097e-08
1.386868938e-06
8.332968917e-08
1.343530463e-06
7.644159352e-08
1.302972452e-06
7.015553267e-08
1.265067492e-06
6.44309845e-08
1.229674519e-06
5.922655335e-08
1.196643171e-06
5.450388023e-08
1.165821786e-06
5.022147281e-08
1.137060102e-06
4.634010323e-08
1.110209882e-06
4.282564252e-08
1.08512937e-06
3.964291678e-08
1.061684642e-06
3.675845876e-08
1.039749486e-06
3.414261438e-08
1.019206016e-06
3.176818682e-08
9.999453651e-07
2.960967181e-08
9.818670673e-07
2.764469354e-08
9.648781881e-07
2.585407276e-08
9.488933687e-07
2.422010335e-08
9.338347124e-07
2.272636953e-08
9.196311006e-07
2.135843117e-08
9.062174742e-07
2.010377496e-08
8.935343609e-07
1.895127003e-08
8.815275186e-07
1.789082573e-08
8.701474027e-07
1.691354615e-08
8.593485838e-07
1.60117398e-08
8.490894635e-07
1.517841889e-08
8.393320909e-07
1.440707409e-08
8.300418354e-07
1.369184951e-08
8.211869969e-07
1.302763196e-08
8.127384703e-07
1.240994832e-08
8.046694996e-07
1.183479802e-08
7.969554817e-07
1.129855295e-08
7.895737531e-07
1.079796685e-08
7.825033832e-07
1.033015602e-08
7.757250558e-07
9.892458684e-09
7.692209967e-07
9.482354055e-09
7.629748599e-07
9.097517747e-09
7.569715796e-07
8.735877814e-09
7.511972256e-07
8.395611607e-09
7.456388781e-07
8.075109476e-09
7.402845291e-07
7.772928104e-09
7.351230029e-07
7.487755822e-09
7.30143886e-07
7.218393213e-09
7.253374734e-07
6.963728406e-09
7.206947351e-07
6.722703137e-09
7.162072891e-07
6.494303873e-09
7.118673587e-07
6.277585862e-09
7.076677183e-07
6.071693409e-09
7.036016364e-07
5.875864455e-09
6.996628224e-07
5.689425144e-09
6.958453767e-07
5.511780074e-09
6.921437507e-07
5.342398835e-09
6.885527146e-07
5.180798992e-09
6.850673392e-07
5.026524998e-09
6.816829912e-07
4.879127053e-09
6.783953297e-07
4.738158892e-09
6.752002939e-07
4.603192029e-09
6.720940851e-07
4.473827494e-09
6.690731446e-07
4.349701606e-09
6.6613413e-07
4.230490099e-09
6.632738894e-07
4.115909354e-09
6.604894344e-07
4.005719032e-09
6.577779192e-07
3.899710165e-09
6.551366292e-07
3.797690631e-09
6.525629812e-07
3.699466449e-09
6.500545263e-07
3.604836225e-09
6.47608953e-07
3.513592495e-09
6.452240835e-07
3.425533516e-09
6.428978654e-07
3.340470155e-09
6.406283602e-07
3.258232416e-09
6.384137319e-07
3.1786689e-09
6.362522338e-07
3.101648948e-09
6.341421962e-07
3.027061564e-09
6.320820172e-07
2.954809627e-09
6.300701563e-07
2.884805102e-09
6.281051334e-07
2.816960552e-09
6.261855295e-07
2.751185832e-09
6.243099902e-07
2.687385102e-09
6.224772263e-07
2.625460892e-09
6.206860124e-07
2.565317321e-09
6.18935182e-07
2.506866641e-09
6.172236216e-07
2.450031363e-09
6.155502624e-07
2.394746256e-09
6.139140754e-07
2.340954434e-09
6.123140672e-07
2.288605156e-09
6.107492786e-07
2.237649644e-09
6.092187832e-07
2.1880402e-09
6.077216887e-07
2.139727204e-09
6.062571369e-07
2.092660166e-09
6.048243038e-07
2.046788364e-09
6.034223978e-07
2.002064361e-09
6.020506571e-07
1.95844385e-09
6.007083476e-07
1.91588657e-09
5.993947614e-07
1.874354723e-09
5.981092143e-07
1.833813584e-09
5.968510451e-07
1.794229937e-09
5.956196143e-07
1.75557302e-09
5.944143013e-07
1.717814882e-09
5.932345041e-07
1.680929598e-09
5.920796368e-07
1.644893723e-09
5.909491299e-07
1.609684043e-09
5.898424296e-07
1.575277513e-09
5.887589986e-07
1.541650415e-09
5.876983151e-07
1.508779718e-09
5.866598733e-07
1.47664228e-09
5.856431823e-07
1.445215812e-09
5.846477663e-07
1.414478636e-09
5.836731629e-07
1.384411006e-09
5.827189226e-07
1.354994091e-09
5.817846083e-07
1.32621033e-09
5.808697944e-07
1.298042633e-09
5.799740664e-07
1.270475217e-09
5.790970205e-07
1.243492622e-09
5.782382632e-07
1.217080174e-09
5.773974107e-07
1.19122336e-09
5.765740887e-07
1.165908638e-09
5.757679325e-07
1.141122516e-09
5.749785859e-07
1.116851947e-09
5.742057021e-07
1.093083729e-09
5.734489428e-07
1.069805264e-09
5.727079784e-07
1.047003826e-09
5.71982488e-07
1.024667183e-09
5.712721584e-07
1.002783414e-09
5.705766842e-07
9.813419164e-10
5.698957666e-07
9.603328257e-10
5.692291132e-07
9.397473382e-10
5.685764372e-07
9.195775696e-10
5.67937457e-07
8.998159188e-10
5.673118963e-07
8.804553372e-10
5.666994839e-07
8.614883731e-10
5.660999537e-07
8.429074234e-10
5.655130453e-07
8.247044045e-10
5.649385038e-07
8.068714495e-10
5.643760797e-07
7.894003736e-10
5.638255291e-07
7.722830263e-10
5.632866139e-07
7.555109893e-10
5.627591012e-07
7.390762424e-10
5.622427638e-07
7.229707685e-10
5.617373798e-07
7.071869692e-10
5.612427321e-07
6.91717418e-10
5.607586085e-07
6.765554236e-10
5.602848011e-07
6.616945652e-10
5.598211062e-07
6.4712894e-10
5.593673241e-07
6.32852782e-10
5.589232589e-07
6.188608156e-10
5.584887183e-07
6.051476917e-10
5.580635137e-07
5.917081404e-10
5.576474604e-07
5.785366306e-10
5.572403772e-07
5.656277725e-10
5.568420871e-07
5.529759264e-10
5.564524166e-07
5.405754936e-10
5.560711963e-07
5.284207698e-10
5.556982602e-07
5.165064557e-10
5.553334462e-07
5.048273798e-10
5.549765952e-07
4.93378723e-10
5.546275515e-07
4.821560365e-10
5.542861622e-07
4.711550651e-10
5.53952277e-07
4.603720859e-10
5.536257484e-07
4.498035301e-10
5.53306431e-07
4.394460641e-10
5.529941819e-07
4.29296243e-10
5.526888605e-07
4.193507099e-10
5.523903289e-07
4.096058511e-10
5.520984515e-07
4.000579919e-10
5.518130954e-07
3.907032645e-10
5.515341303e-07
3.815379406e-10
5.512614285e-07
3.725581811e-10
5.509948648e-07
3.637601995e-10
5.507343167e-07
3.551400973e-10
5.504796643e-07
3.466941394e-10
5.502307903e-07
3.384185289e-10
5.499875797e-07
3.303095776e-10
5.497499203e-07
3.22363574e-10