/*--------------------------------*- C++ -*----------------------------------*\
| =========                 |                                                 |
| \\      /  F ield         | OpenFOAM: The Open Source CFD Toolbox           |
|  \\    /   O peration     | Version:  2312                                  |
|   \\  /    A nd           | Website:  www.openfoam.com                      |
|    \\/     M anipulation  |                                                 |
\*---------------------------------------------------------------------------*/
FoamFile
{
    version     2.0;
    format      ascii;
    arch        "LSB;label=32;scalar=64";
    class       volVectorField;
    location    "429";
    object      U;
}
// * * * * * * * * * * * * * * * * * * * * * * * * * * * * * * * * * * * * * //

dimensions      [0 1 -1 0 0 0 0];

internalField   nonuniform List<vector> 
63546
(
(0.968311614 0.01470418108 0)
(0.9254179269 0.04608948183 0)
(0.8645528589 0.05827932366 0)
(0.7950862294 0.0606699599 0)
(0.7282221203 0.0575874568 0)
(0.6670052343 0.05168597681 0)
(0.611462089 0.04472800404 0)
(0.5618960016 0.03636502446 0)
(0.5185247221 0.02670816689 0)
(0.4809850861 0.01885429755 0)
(0.4484700068 0.01390517638 0)
(0.4199038259 0.01062528971 0)
(0.3946312176 0.00837158005 0)
(0.3722016978 0.006759797417 0)
(0.3522403938 0.005560735797 0)
(0.3344420781 0.004640058716 0)
(0.3185442541 0.003919605358 0)
(0.3043129823 0.003346453787 0)
(0.2915419215 0.002883334136 0)
(0.2800509408 0.002504376206 0)
(0.2696830526 0.002190933976 0)
(0.2603017278 0.001929365994 0)
(0.2517881197 0.00170956656 0)
(0.2440387134 0.00152345255 0)
(0.2369637484 0.001364636572 0)
(0.230485561 0.001228244911 0)
(0.2245368338 0.001110439797 0)
(0.2190591913 0.001008075546 0)
(0.2140019831 0.0009186560243 0)
(0.2093210434 0.0008402221023 0)
(0.2049776912 0.0007711216106 0)
(0.2009380655 0.0007099463209 0)
(0.197172526 0.0006555526644 0)
(0.1936550144 0.0006070198167 0)
(0.1903625011 0.0005635718742 0)
(0.1872745831 0.000524536207 0)
(0.1843731543 0.000489352278 0)
(0.181642078 0.0004575640107 0)
(0.1790669151 0.0004287698436 0)
(0.1766347476 0.0004026019327 0)
(0.1743340301 0.0003787429048 0)
(0.1721544189 0.0003569330059 0)
(0.1700865991 0.0003369570656 0)
(0.1681221471 0.0003186275002 0)
(0.1662534296 0.0003017762974 0)
(0.1644735192 0.0002862570843 0)
(0.1627761114 0.0002719435169 0)
(0.1611554564 0.0002587177444 0)
(0.1596063174 0.0002464658811 0)
(0.1581239356 0.0002350853933 0)
(0.1567039832 0.0002244907565 0)
(0.1553425086 0.0002146118924 0)
(0.154035886 0.0002053895809 0)
(0.1527807751 0.0001967712719 0)
(0.1515740911 0.0001887087312 0)
(0.1504129815 0.0001811573684 0)
(0.1492948062 0.0001740750592 0)
(0.1482171245 0.0001674203654 0)
(0.147177686 0.0001611530839 0)
(0.1461744203 0.0001552369976 0)
(0.1452054217 0.0001496416083 0)
(0.1442689307 0.00014434188 0)
(0.1433633144 0.0001393172388 0)
(0.1424870512 0.0001345504403 0)
(0.1416387162 0.0001300263766 0)
(0.1408169709 0.0001257308898 0)
(0.1400205571 0.0001216494259 0)
(0.1392482947 0.0001177660799 0)
(0.1384990816 0.000114064235 0)
(0.1377718934 0.0001105282404 0)
(0.1370657786 0.0001071444725 0)
(0.1363798523 0.0001039015312 0)
(0.1357132889 0.0001007902616 0)
(0.1350653138 9.780370397e-05 0)
(0.1344351955 9.493675048e-05 0)
(0.1338222387 9.218526235e-05 0)
(0.1332257794 8.95447771e-05 0)
(0.1326451849 8.70094931e-05 0)
(0.1320798549 8.457220152e-05 0)
(0.1315292243 8.222514908e-05 0)
(0.1309927637 7.996108501e-05 0)
(0.1304699774 7.777386417e-05 0)
(0.1299604004 7.565857032e-05 0)
(0.1294635947 7.361145119e-05 0)
(0.1289791448 7.16297893e-05 0)
(0.1285066548 6.971168987e-05 0)
(0.1280457443 6.785561451e-05 0)
(0.1275960471 6.605987174e-05 0)
(0.1271572102 6.432227362e-05 0)
(0.126728895 6.263998938e-05 0)
(0.1263107778 6.100963874e-05 0)
(0.1259025515 5.942765454e-05 0)
(0.1255039255 5.789077029e-05 0)
(0.125114625 5.639637359e-05 0)
(0.1247343887 5.494260388e-05 0)
(0.1243629669 5.352821513e-05 0)
(0.1240001193 5.215230655e-05 0)
(0.1236456136 5.081403139e-05 0)
(0.1232992251 4.951238933e-05 0)
(0.1229607363 4.824613053e-05 0)
(0.1226299377 4.701376099e-05 0)
(0.1223066275 4.581363514e-05 0)
(0.1219906128 4.464412707e-05 0)
(0.1216817084 4.350379819e-05 0)
(0.1213797371 4.239146541e-05 0)
(0.1210845282 4.130614483e-05 0)
(0.1207959172 4.024695745e-05 0)
(0.1205137456 3.921307433e-05 0)
(0.1202378599 3.820372028e-05 0)
(0.1199681119 3.72181955e-05 0)
(0.1197043576 3.625591051e-05 0)
(0.1194464576 3.531635456e-05 0)
(0.1191942758 3.439903629e-05 0)
(0.11894768 3.350342025e-05 0)
(0.1187065414 3.262888783e-05 0)
(0.1184707348 3.177475402e-05 0)
(0.118240139 3.09403153e-05 0)
(0.1180146363 3.012488795e-05 0)
(0.1177941131 2.932782492e-05 0)
(0.1175784589 2.854853604e-05 0)
(0.1173675668 2.778650444e-05 0)
(0.1171613329 2.70412786e-05 0)
(0.1169596562 2.631244022e-05 0)
(0.1167624384 2.559958421e-05 0)
(0.1165695837 2.490231978e-05 0)
(0.1163809988 2.422027493e-05 0)
(0.1161965928 2.355308712e-05 0)
(0.1160162769 2.290039685e-05 0)
(0.1158399648 2.226185052e-05 0)
(0.1156675722 2.163710226e-05 0)
(0.1154990166 2.102580296e-05 0)
(0.1153342181 2.042759383e-05 0)
(0.1151730985 1.984211239e-05 0)
(0.1150155817 1.926900479e-05 0)
(0.1148615937 1.870793526e-05 0)
(0.1147110622 1.815860281e-05 0)
(0.1145639171 1.762075945e-05 0)
(0.1144200894 1.709421511e-05 0)
(0.1142795119 1.657881926e-05 0)
(0.1141421183 1.607444885e-05 0)
(0.1140078438 1.55809796e-05 0)
(0.1138766243 1.509826418e-05 0)
(0.113748397 1.462612207e-05 0)
(0.1136231001 1.41643377e-05 0)
(0.1135006733 1.371267146e-05 0)
(0.1133810573 1.327087494e-05 0)
(0.1132641942 1.283869927e-05 0)
(0.1131500275 1.241589147e-05 0)
(0.1130385019 1.200219576e-05 0)
(0.1129295636 1.159736486e-05 0)
(0.1128231601 1.120117192e-05 0)
(0.11271924 1.081341057e-05 0)
(0.1126177532 1.043389423e-05 0)
(0.1125186508 1.006245919e-05 0)
(0.1124218848 9.698966164e-06 0)
(0.1123274082 9.3432906e-06 0)
(0.1122351749 8.995312759e-06 0)
(0.1121451395 8.654912371e-06 0)
(0.1120572576 8.321965048e-06 0)
(0.1119714855 7.996333889e-06 0)
(0.1118877804 7.677866382e-06 0)
(0.1118061004 7.366398897e-06 0)
(0.1117264043 7.061763876e-06 0)
(0.111648652 6.763792189e-06 0)
(0.1115728043 6.472319122e-06 0)
(0.1114988228 6.187194164e-06 0)
(0.1114266699 5.908287817e-06 0)
(0.1113563089 5.635487013e-06 0)
(0.1112877038 5.368695954e-06 0)
(0.1112208193 5.107831465e-06 0)
(0.1111556206 4.852822264e-06 0)
(0.1110920734 4.603606583e-06 0)
(0.111030144 4.360120752e-06 0)
(0.1109697992 4.122288614e-06 0)
(0.1109110064 3.890018362e-06 0)
(0.1108537333 3.663206145e-06 0)
(0.1107979484 3.441738643e-06 0)
(0.1107436206 3.225497215e-06 0)
(0.1106907197 3.014363101e-06 0)
(0.1106392158 2.808220481e-06 0)
(0.1105890799 2.606953582e-06 0)
(0.1105402834 2.410445108e-06 0)
(0.1104927985 2.218578614e-06 0)
(0.1104465978 2.031241961e-06 0)
(0.1104016547 1.848326497e-06 0)
(0.1103579432 1.669726524e-06 0)
(0.1103154377 1.495340303e-06 0)
(0.1102741134 1.325071446e-06 0)
(0.1102339458 1.158827812e-06 0)
(0.1101949112 9.96525386e-07 0)
(0.1101569862 8.381010053e-07 0)
(0.1101201479 6.835472193e-07 0)
(0.1100843736 5.330208889e-07 0)
(0.1100496414 3.869322147e-07 0)
(0.1100159288 2.453575622e-07 0)
(0.1099832078 1.084078815e-07 0)
(0.1099514661 -2.15757493e-08 0)
(0.1099206918 -1.480562475e-07 0)
(0.1098908597 -2.709386546e-07 0)
(0.1098619516 -3.901326137e-07 0)
(0.1098339489 -5.059695248e-07 0)
(0.1098068326 -6.187195808e-07 0)
(0.1097805842 -7.285548342e-07 0)
(0.1097551859 -8.355960493e-07 0)
(0.10973062 -9.399331631e-07 0)
(0.1097068695 -1.04163591e-06 0)
(0.1096839175 -1.140761037e-06 0)
(0.1096617477 -1.237357145e-06 0)
(0.1096403437 -1.331469077e-06 0)
(0.1096196897 -1.423144373e-06 0)
(0.1095997701 -1.512434324e-06 0)
(0.1095805696 -1.599380289e-06 0)
(0.1095620732 -1.683965726e-06 0)
(0.1095442662 -1.766043803e-06 0)
(0.1095271336 -1.84522945e-06 0)
(0.1095106574 -1.920536821e-06 0)
(0.1094948268 -1.995709622e-06 0)
(0.1094796339 -2.086627248e-06 0)
(0.1094650664 -2.180059935e-06 0)
(0.1094511123 -2.270285277e-06 0)
(0.1094377554 -2.356956586e-06 0)
(0.1094249809 -2.440658166e-06 0)
(0.1094127756 -2.521814687e-06 0)
(0.1094011274 -2.600693915e-06 0)
(0.1093900248 -2.677472922e-06 0)
(0.1093794566 -2.752268976e-06 0)
(0.109369412 -2.825163755e-06 0)
(0.1093598804 -2.896221011e-06 0)
(0.1093508517 -2.965496277e-06 0)
(0.1093423159 -3.033040851e-06 0)
(0.1093342633 -3.098904918e-06 0)
(0.1093266843 -3.16313847e-06 0)
(0.1093195698 -3.225790126e-06 0)
(0.1093129107 -3.286905395e-06 0)
(0.1093066984 -3.346526964e-06 0)
(0.1093009242 -3.40469566e-06 0)
(0.1092955799 -3.461453181e-06 0)
(0.1092906573 -3.516850403e-06 0)
(0.1092861486 -3.570978031e-06 0)
(0.1092820462 -3.624076245e-06 0)
(0.1092783417 -3.676185429e-06 0)
(0.1092750328 -3.726591485e-06 0)
(0.1092721072 -3.7772692e-06 0)
(0.1092695478 -3.825530702e-06 0)
(0.1092673592 -3.871814874e-06 0)
(0.1092655333 -3.917438083e-06 0)
(0.1092640627 -3.962397255e-06 0)
(0.1092629425 -4.007493307e-06 0)
(0.1092621691 -4.055830403e-06 0)
(0.1092617389 -4.113455481e-06 0)
(0.1092616762 -4.181086749e-06 0)
(0.1092620045 -4.245750432e-06 0)
(0.1092626678 -4.298200917e-06 0)
(0.1092636556 -4.344150008e-06 0)
(0.1092649612 -4.379670329e-06 0)
(0.1092665913 -4.390589424e-06 0)
(0.109268498 -4.405829298e-06 0)
(0.1092706467 -4.421580954e-06 0)
(0.1092730611 -4.440335401e-06 0)
(0.1092757343 -4.461160164e-06 0)
(0.1092786642 -4.481424805e-06 0)
(0.1092818322 -4.500528503e-06 0)
(0.1092852436 -4.512123477e-06 0)
(0.1092889189 -4.520759807e-06 0)
(0.1092928482 -4.528175214e-06 0)
(0.1092970254 -4.533563391e-06 0)
(0.1093014492 -4.536852312e-06 0)
(0.1093061164 -4.537485498e-06 0)
(0.109311017 -4.532314256e-06 0)
(0.1093161594 -4.526536548e-06 0)
(0.1093215482 -4.528001292e-06 0)
(0.109327187 -4.533459955e-06 0)
(0.1093330717 -4.537938356e-06 0)
(0.109339191 -4.539461531e-06 0)
(0.1093455271 -4.538110903e-06 0)
(0.1093520713 -4.532488124e-06 0)
(0.1093588224 -4.52447016e-06 0)
(0.1093657709 -4.514960492e-06 0)
(0.1093729094 -4.503730341e-06 0)
(0.1093802316 -4.490811597e-06 0)
(0.1093877322 -4.478633349e-06 0)
(0.1093954139 -4.476894223e-06 0)
(0.109403283 -4.486351461e-06 0)
(0.1094113306 -4.496453571e-06 0)
(0.109419557 -4.491956418e-06 0)
(0.1094279452 -4.479332841e-06 0)
(0.1094364919 -4.465405923e-06 0)
(0.1094451962 -4.452196973e-06 0)
(0.1094540574 -4.439689487e-06 0)
(0.1094630739 -4.427612172e-06 0)
(0.1094722439 -4.415790812e-06 0)
(0.1094815653 -4.404127587e-06 0)
(0.109491036 -4.392576055e-06 0)
(0.1095006539 -4.381132023e-06 0)
(0.109510417 -4.369831405e-06 0)
(0.1095203233 -4.358760045e-06 0)
(0.1095303714 -4.348084852e-06 0)
(0.10954056 -4.338117166e-06 0)
(0.1095508889 -4.329344372e-06 0)
(0.1095613595 -4.322037304e-06 0)
(0.1095719733 -4.314575851e-06 0)
(0.1095827222 -4.302105286e-06 0)
(0.109593593 -4.286057242e-06 0)
(0.1096045793 -4.295164143e-06 0)
(0.1096156833 -4.327935144e-06 0)
(0.1096269138 -4.36886979e-06 0)
(0.1096382756 -4.410588385e-06 0)
(0.1096497689 -4.451060509e-06 0)
(0.1096613921 -4.48987177e-06 0)
(0.1096731431 -4.526935411e-06 0)
(0.1096850187 -4.562305319e-06 0)
(0.1096970153 -4.596170761e-06 0)
(0.1097091289 -4.628846461e-06 0)
(0.1097213564 -4.660824234e-06 0)
(0.1097336967 -4.693143224e-06 0)
(0.1097461439 -4.722990863e-06 0)
(0.1097586914 -4.735682868e-06 0)
(0.1097713361 -4.743663566e-06 0)
(0.109784076 -4.752324598e-06 0)
(0.1097969123 -4.761825433e-06 0)
(0.1098098455 -4.771538646e-06 0)
(0.1098228744 -4.781122092e-06 0)
(0.1098359976 -4.790420584e-06 0)
(0.1098492131 -4.799337731e-06 0)
(0.109862519 -4.807745546e-06 0)
(0.1098759125 -4.815434271e-06 0)
(0.1098893908 -4.822758743e-06 0)
(0.1099029537 -4.831230156e-06 0)
(0.1099166031 -4.840837655e-06 0)
(0.1099303401 -4.850754122e-06 0)
(0.1099441641 -4.860454764e-06 0)
(0.109958074 -4.869793579e-06 0)
(0.1099720681 -4.878760949e-06 0)
(0.1099861449 -4.887376732e-06 0)
(0.1100003027 -4.895666997e-06 0)
(0.11001454 -4.903641798e-06 0)
(0.1100288553 -4.911253758e-06 0)
(0.1100432467 -4.918321013e-06 0)
(0.1100577118 -4.924395118e-06 0)
(0.1100722469 -4.929012187e-06 0)
(0.1100868523 -4.932987037e-06 0)
(0.1101015329 -4.937530962e-06 0)
(0.1101162926 -4.942423549e-06 0)
(0.1101311319 -4.945908777e-06 0)
(0.110146044 -4.946628423e-06 0)
(0.1101610195 -4.946828742e-06 0)
(0.1101760551 -4.949401155e-06 0)
(0.1101911538 -4.954787461e-06 0)
(0.1102063194 -4.962057512e-06 0)
(0.1102215552 -4.970328861e-06 0)
(0.1102368627 -4.979019368e-06 0)
(0.1102522426 -4.987729573e-06 0)
(0.1102676944 -4.996190912e-06 0)
(0.1102832171 -5.00424804e-06 0)
(0.1102988091 -5.011830573e-06 0)
(0.1103144686 -5.018922549e-06 0)
(0.1103301939 -5.0255404e-06 0)
(0.110345983 -5.031718312e-06 0)
(0.1103618342 -5.037498707e-06 0)
(0.1103777457 -5.042926721e-06 0)
(0.1103937161 -5.048046557e-06 0)
(0.1104097439 -5.052900595e-06 0)
(0.1104258278 -5.057529662e-06 0)
(0.1104419666 -5.061974746e-06 0)
(0.1104581594 -5.066280948e-06 0)
(0.1104744053 -5.070505744e-06 0)
(0.1104907036 -5.074733408e-06 0)
(0.1105070541 -5.079095514e-06 0)
(0.1105234569 -5.083766754e-06 0)
(0.1105399129 -5.088815208e-06 0)
(0.1105564227 -5.093576488e-06 0)
(0.110572983 -5.095695417e-06 0)
(0.110589585 -5.09303598e-06 0)
(0.1106062224 -5.08770087e-06 0)
(0.1106229014 -5.083252537e-06 0)
(0.1106396299 -5.078463321e-06 0)
(0.1106564101 -5.07153345e-06 0)
(0.1106732404 -5.062651089e-06 0)
(0.1106901183 -5.052646191e-06 0)
(0.110707042 -5.042091688e-06 0)
(0.1107240105 -5.031276467e-06 0)
(0.1107410227 -5.020317512e-06 0)
(0.110758078 -5.00919069e-06 0)
(0.1107751752 -4.997674461e-06 0)
(0.1107923122 -4.985310941e-06 0)
(0.110809486 -4.972182429e-06 0)
(0.1108266953 -4.959155907e-06 0)
(0.1108439403 -4.946910551e-06 0)
(0.1108612228 -4.935603046e-06 0)
(0.110878545 -4.925146159e-06 0)
(0.1108959085 -4.915414631e-06 0)
(0.110913315 -4.906311182e-06 0)
(0.1109307656 -4.897817413e-06 0)
(0.1109482614 -4.89006436e-06 0)
(0.1109658039 -4.883398474e-06 0)
(0.1109833949 -4.87788021e-06 0)
(0.1110010331 -4.872465832e-06 0)
(0.111018713 -4.866489416e-06 0)
(0.11103643 -4.860916158e-06 0)
(0.1110541829 -4.856441393e-06 0)
(0.1110719717 -4.852869032e-06 0)
(0.1110897969 -4.849770794e-06 0)
(0.1111076583 -4.846814809e-06 0)
(0.1111255553 -4.843738017e-06 0)
(0.1111434865 -4.840310889e-06 0)
(0.1111614503 -4.836498237e-06 0)
(0.1111794451 -4.832529208e-06 0)
(0.111197471 -4.829065637e-06 0)
(0.1112155301 -4.826860168e-06 0)
(0.1112336251 -4.825834939e-06 0)
(0.1112517582 -4.825430704e-06 0)
(0.1112699303 -4.825099866e-06 0)
(0.111288141 -4.824156653e-06 0)
(0.1113063879 -4.822216894e-06 0)
(0.1113246687 -4.819816123e-06 0)
(0.1113429817 -4.817227044e-06 0)
(0.1113613261 -4.814459866e-06 0)
(0.111379701 -4.811462524e-06 0)
(0.1113981055 -4.808163129e-06 0)
(0.1114165383 -4.804461762e-06 0)
(0.1114349978 -4.80030379e-06 0)
(0.1114534825 -4.795846208e-06 0)
(0.1114719915 -4.791427482e-06 0)
(0.1114905246 -4.78731781e-06 0)
(0.1115090824 -4.783618457e-06 0)
(0.1115276658 -4.780331359e-06 0)
(0.1115462758 -4.777423836e-06 0)
(0.1115649134 -4.774848322e-06 0)
(0.1115835793 -4.772549026e-06 0)
(0.1116022744 -4.770469185e-06 0)
(0.1116209992 -4.768557496e-06 0)
(0.111639754 -4.766774167e-06 0)
(0.1116585393 -4.765096601e-06 0)
(0.111677355 -4.763525866e-06 0)
(0.1116962016 -4.762092983e-06 0)
(0.1117150792 -4.760856195e-06 0)
(0.1117339884 -4.759846735e-06 0)
(0.1117529299 -4.758873946e-06 0)
(0.1117719031 -4.757179473e-06 0)
(0.1117909048 -4.753620503e-06 0)
(0.1118099294 -4.748313517e-06 0)
(0.1118289736 -4.743156967e-06 0)
(0.1118480392 -4.74026251e-06 0)
(0.11186713 -4.739057344e-06 0)
(0.1118862482 -4.738325494e-06 0)
(0.1119053938 -4.737490763e-06 0)
(0.111924566 -4.736428495e-06 0)
(0.1119437639 -4.735122598e-06 0)
(0.1119629865 -4.733575433e-06 0)
(0.1119822328 -4.731797538e-06 0)
(0.1120015017 -4.729786142e-06 0)
(0.1120207924 -4.727516548e-06 0)
(0.1120401036 -4.725009349e-06 0)
(0.1120594345 -4.722388193e-06 0)
(0.1120787846 -4.719811229e-06 0)
(0.1120981536 -4.717384175e-06 0)
(0.1121175419 -4.715152277e-06 0)
(0.1121369497 -4.713131863e-06 0)
(0.1121563776 -4.711329756e-06 0)
(0.112175826 -4.709749842e-06 0)
(0.1121952956 -4.708398626e-06 0)
(0.112214787 -4.707291987e-06 0)
(0.1122343007 -4.706455543e-06 0)
(0.1122538376 -4.705893686e-06 0)
(0.1122733983 -4.7053236e-06 0)
(0.1122929816 -4.703907639e-06 0)
(0.1123125852 -4.701634004e-06 0)
(0.112332208 -4.699388264e-06 0)
(0.1123518508 -4.697722559e-06 0)
(0.1123715152 -4.696665485e-06 0)
(0.1123912033 -4.696064542e-06 0)
(0.1124109166 -4.695689051e-06 0)
(0.1124306556 -4.695181996e-06 0)
(0.1124504201 -4.69432425e-06 0)
(0.1124702094 -4.69328172e-06 0)
(0.1124900231 -4.692205424e-06 0)
(0.112509861 -4.691112752e-06 0)
(0.1125297228 -4.689960575e-06 0)
(0.1125496079 -4.688706674e-06 0)
(0.1125695158 -4.687336444e-06 0)
(0.1125894459 -4.685877163e-06 0)
(0.1126093977 -4.684389662e-06 0)
(0.1126293711 -4.682939501e-06 0)
(0.112649366 -4.681578835e-06 0)
(0.1126693824 -4.680350139e-06 0)
(0.1126894207 -4.67929657e-06 0)
(0.1127094813 -4.678466553e-06 0)
(0.1127295651 -4.677908713e-06 0)
(0.1127496728 -4.677645278e-06 0)
(0.1127698055 -4.67759712e-06 0)
(0.1127899637 -4.677459664e-06 0)
(0.1128101468 -4.676733165e-06 0)
(0.1128303528 -4.675212778e-06 0)
(0.1128505793 -4.673183066e-06 0)
(0.1128708252 -4.671491528e-06 0)
(0.1128910917 -4.670951478e-06 0)
(0.1129113813 -4.67136731e-06 0)
(0.1129316961 -4.672187395e-06 0)
(0.1129520372 -4.673065073e-06 0)
(0.1129724051 -4.673872206e-06 0)
(0.1129927998 -4.674565914e-06 0)
(0.1130132212 -4.675132871e-06 0)
(0.1130336692 -4.675580503e-06 0)
(0.1130541434 -4.675935215e-06 0)
(0.1130746437 -4.676238775e-06 0)
(0.11309517 -4.676537727e-06 0)
(0.1131157221 -4.676868361e-06 0)
(0.1131363002 -4.677249436e-06 0)
(0.1131569043 -4.677686445e-06 0)
(0.1131775345 -4.678217193e-06 0)
(0.1131981914 -4.679046359e-06 0)
(0.1132188762 -4.680329971e-06 0)
(0.1132395903 -4.681877645e-06 0)
(0.1132603343 -4.683215933e-06 0)
(0.1132811082 -4.68442942e-06 0)
(0.1133019124 -4.68584845e-06 0)
(0.113322748 -4.687653401e-06 0)
(0.1133436162 -4.68985192e-06 0)
(0.1133645184 -4.692351502e-06 0)
(0.1133854556 -4.694996371e-06 0)
(0.1134064286 -4.697713081e-06 0)
(0.1134274379 -4.700583855e-06 0)
(0.1134484844 -4.703718551e-06 0)
(0.1134695689 -4.707179398e-06 0)
(0.1134906928 -4.710997199e-06 0)
(0.1135118574 -4.715195708e-06 0)
(0.1135330641 -4.719788217e-06 0)
(0.1135543144 -4.724751012e-06 0)
(0.11357561 -4.729979243e-06 0)
(0.1135969518 -4.735258596e-06 0)
(0.1136183403 -4.740384006e-06 0)
(0.1136397754 -4.745283647e-06 0)
(0.1136612566 -4.750014827e-06 0)
(0.1136827836 -4.75476013e-06 0)
(0.1137043572 -4.759905584e-06 0)
(0.1137259789 -4.765843274e-06 0)
(0.1137476514 -4.772551165e-06 0)
(0.1137693772 -4.779767525e-06 0)
(0.1137911583 -4.787279217e-06 0)
(0.1138129962 -4.794993039e-06 0)
(0.1138348924 -4.802914706e-06 0)
(0.1138568481 -4.811166274e-06 0)
(0.1138788652 -4.819891937e-06 0)
(0.1139009459 -4.829165413e-06 0)
(0.1139230927 -4.83899743e-06 0)
(0.1139453079 -4.849343086e-06 0)
(0.113967594 -4.8600662e-06 0)
(0.1139899529 -4.871075183e-06 0)
(0.1140123864 -4.882473673e-06 0)
(0.1140348968 -4.894437576e-06 0)
(0.1140574868 -4.907091778e-06 0)
(0.1140801595 -4.92049993e-06 0)
(0.1141029182 -4.9346843e-06 0)
(0.1141257665 -4.949616647e-06 0)
(0.1141487078 -4.965177349e-06 0)
(0.1141717451 -4.981167346e-06 0)
(0.1141948809 -4.997479607e-06 0)
(0.1142181174 -5.014142715e-06 0)
(0.114241457 -5.031234524e-06 0)
(0.1142649021 -5.048829075e-06 0)
(0.1142884551 -5.067022823e-06 0)
(0.114312119 -5.085997154e-06 0)
(0.1143358975 -5.106044879e-06 0)
(0.1143597954 -5.127491297e-06 0)
(0.1143838184 -5.15041059e-06 0)
(0.1144079725 -5.17465542e-06 0)
(0.1144322635 -5.20006204e-06 0)
(0.114456697 -5.226529448e-06 0)
(0.1144812783 -5.253965224e-06 0)
(0.1145060127 -5.282258969e-06 0)
(0.114530905 -5.311410446e-06 0)
(0.1145559601 -5.341511366e-06 0)
(0.1145811832 -5.372629216e-06 0)
(0.1146065796 -5.404804698e-06 0)
(0.114632155 -5.43812725e-06 0)
(0.1146579151 -5.47273344e-06 0)
(0.1146838663 -5.50874236e-06 0)
(0.1147100155 -5.546224782e-06 0)
(0.1147363697 -5.585218974e-06 0)
(0.1147629362 -5.625754115e-06 0)
(0.1147897227 -5.667860921e-06 0)
(0.1148167368 -5.711604417e-06 0)
(0.1148439869 -5.757149561e-06 0)
(0.1148714819 -5.804701988e-06 0)
(0.1148992312 -5.854318627e-06 0)
(0.1149272447 -5.905933301e-06 0)
(0.1149555321 -5.959522338e-06 0)
(0.1149841034 -6.01515284e-06 0)
(0.115012969 -6.072928584e-06 0)
(0.1150421395 -6.132950795e-06 0)
(0.1150716262 -6.195316134e-06 0)
(0.1151014406 -6.260123224e-06 0)
(0.1151315948 -6.327474178e-06 0)
(0.1151621014 -6.397475342e-06 0)
(0.1151929735 -6.47023741e-06 0)
(0.1152242247 -6.545875132e-06 0)
(0.1152558692 -6.624505768e-06 0)
(0.1152879217 -6.706249902e-06 0)
(0.1153203975 -6.791231108e-06 0)
(0.1153533126 -6.879576268e-06 0)
(0.1153866836 -6.971415286e-06 0)
(0.1154205277 -7.066883338e-06 0)
(0.1154548629 -7.16612096e-06 0)
(0.1154897078 -7.26927393e-06 0)
(0.1155250818 -7.376492212e-06 0)
(0.1155610048 -7.487931938e-06 0)
(0.1155974979 -7.603755675e-06 0)
(0.1156345828 -7.724132319e-06 0)
(0.1156722818 -7.849238074e-06 0)
(0.1157106186 -7.979256378e-06 0)
(0.1157496173 -8.114378716e-06 0)
(0.1157893033 -8.254805905e-06 0)
(0.1158297027 -8.400746766e-06 0)
(0.1158708428 -8.552418235e-06 0)
(0.1159127521 -8.710046298e-06 0)
(0.1159554598 -8.873867386e-06 0)
(0.1159989966 -9.044127214e-06 0)
(0.1160433942 -9.221081138e-06 0)
(0.1160886857 -9.404995461e-06 0)
(0.1161349054 -9.596149065e-06 0)
(0.116182089 -9.794832324e-06 0)
(0.1162302736 -1.000134745e-05 0)
(0.1162794978 -1.021600999e-05 0)
(0.1163298017 -1.043915056e-05 0)
(0.116381227 -1.067111379e-05 0)
(0.116433817 -1.091225878e-05 0)
(0.116487617 -1.116296102e-05 0)
(0.1165426739 -1.142361457e-05 0)
(0.1165990365 -1.169463154e-05 0)
(0.1166567557 -1.197644288e-05 0)
(0.1167158843 -1.226950141e-05 0)
(0.1167764776 -1.25742841e-05 0)
(0.1168385928 -1.289129105e-05 0)
(0.1169022897 -1.322104804e-05 0)
(0.1169676306 -1.356410509e-05 0)
(0.1170346803 -1.392103886e-05 0)
(0.1171035064 -1.429245469e-05 0)
(0.1171741794 -1.467898659e-05 0)
(0.1172467728 -1.508129866e-05 0)
(0.1173213632 -1.550008983e-05 0)
(0.1173980306 -1.593609779e-05 0)
(0.1174768585 -1.639010006e-05 0)
(0.1175579338 -1.686291586e-05 0)
(0.1176413476 -1.73554115e-05 0)
(0.1177271948 -1.786850469e-05 0)
(0.1178155747 -1.840316587e-05 0)
(0.117906591 -1.896042055e-05 0)
(0.1180003522 -1.954135621e-05 0)
(0.118096972 -2.014712796e-05 0)
(0.118196569 -2.077896145e-05 0)
(0.1182992678 -2.143815684e-05 0)
(0.1184051988 -2.21260983e-05 0)
(0.1185144986 -2.284426232e-05 0)
(0.1186273108 -2.359422354e-05 0)
(0.1187437858 -2.437766184e-05 0)
(0.1188640817 -2.519637638e-05 0)
(0.1189883649 -2.605229781e-05 0)
(0.11911681 -2.694749778e-05 0)
(0.1192496012 -2.788419902e-05 0)
(0.1193869323 -2.886479431e-05 0)
(0.1195290079 -2.989186409e-05 0)
(0.1196760438 -3.0968192e-05 0)
(0.119828268 -3.209679002e-05 0)
(0.1199859216 -3.328091932e-05 0)
(0.1201492601 -3.452412164e-05 0)
(0.1203185541 -3.583025331e-05 0)
(0.1204940908 -3.720351666e-05 0)
(0.1206761755 -3.864849878e-05 0)
(0.120865133 -4.017022352e-05 0)
(0.1210613093 -4.177420855e-05 0)
(0.1212650738 -4.346652286e-05 0)
(0.1214768214 -4.525385581e-05 0)
(0.1216969749 -4.714360618e-05 0)
(0.1219259876 -4.914398179e-05 0)
(0.1221643472 -5.12641066e-05 0)
(0.1224125782 -5.351414876e-05 0)
(0.1226712473 -5.590548215e-05 0)
(0.1229409669 -5.845087212e-05 0)
(0.1232224012 -6.116468537e-05 0)
(0.1235162719 -6.406314219e-05 0)
(0.1238233654 -6.716463215e-05 0)
(0.1241445412 -7.049008666e-05 0)
(0.1244807411 -7.406341749e-05 0)
(0.1248330005 -7.791205157e-05 0)
(0.1252024615 -8.206760283e-05 0)
(0.1255903883 -8.656668826e-05 0)
(0.1259981857 -9.145192265e-05 0)
(0.1264274204 -9.677318451e-05 0)
(0.1268798481 -0.000102589183 0)
(0.1273574441 -0.0001089694766 0)
(0.1278624431 -0.0001159970495 0)
(0.1283973854 -0.000123771633 0)
(0.1289651761 -0.0001324140607 0)
(0.1295691577 -0.0001420720771 0)
(0.1302132025 -0.0001529281363 0)
(0.13090183 -0.0001652100406 0)
(0.1316403582 -0.0001792057301 0)
(0.1324351021 -0.0001952842791 0)
(0.1332936373 -0.0002139262371 0)
(0.1342251561 -0.000235768505 0)
(0.1352409574 -0.0002616723915 0)
(0.136355137 -0.0002928296305 0)
(0.1375855793 -0.0003309319781 0)
(0.1389554214 -0.0003784503983 0)
(0.1404952716 -0.000439108112 0)
(0.1422466647 -0.0005187045867 0)
(0.1442676125 -0.0006265930007 0)
(0.1466418561 -0.0007784815747 0)
(0.1494943986 -0.001002283206 0)
(0.1530146894 -0.001350829326 0)
(0.1574970567 -0.001933118988 0)
(0.1634772175 -0.00306521827 0)
(0.1723914494 -0.006396761149 0)
(0.183960819 -0.02066119649 0)
(1.005478412 0.03502219585 0)
(1.019440538 0.06679871902 0)
(1.021608847 0.07700652579 0)
(1.010543345 0.07957319862 0)
(0.9913819378 0.07839229635 0)
(0.9676101572 0.07484708899 0)
(0.940750157 0.06942931696 0)
(0.9121096957 0.06318604469 0)
(0.8825490314 0.05746870743 0)
(0.852635277 0.05230071042 0)
(0.8230560916 0.04757833207 0)
(0.7944740782 0.04323543404 0)
(0.7672559207 0.03919682345 0)
(0.7414964943 0.0354659783 0)
(0.7172257967 0.03204191654 0)
(0.6944408473 0.02891905412 0)
(0.6731047099 0.02609971078 0)
(0.6531552669 0.02357329959 0)
(0.6345214451 0.02131981317 0)
(0.6171281732 0.01931583017 0)
(0.6008982452 0.01753608141 0)
(0.5857546087 0.0159568161 0)
(0.5716210553 0.01455654195 0)
(0.5584234685 0.01331407158 0)
(0.5460914992 0.01220969165 0)
(0.5345589216 0.01122614839 0)
(0.5237635961 0.01034830849 0)
(0.5136478028 0.009562773861 0)
(0.5041583241 0.008858110379 0)
(0.4952460075 0.008224610198 0)
(0.4868655089 0.007653655493 0)
(0.4789753169 0.007137648124 0)
(0.4715375815 0.006670103322 0)
(0.464517729 0.006245518433 0)
(0.4578841288 0.005859109726 0)
(0.4516078946 0.005506645604 0)
(0.4456626764 0.005184455394 0)
(0.4400243631 0.004889391676 0)
(0.4346708465 0.004618652744 0)
(0.429581913 0.0043696997 0)
(0.4247391299 0.004140284036 0)
(0.4201256622 0.003928457058 0)
(0.4157260758 0.003732527239 0)
(0.4115261852 0.003550999923 0)
(0.407512946 0.003382539432 0)
(0.4036743554 0.003225965636 0)
(0.3999993415 0.003080239629 0)
(0.396477677 0.002944412827 0)
(0.3930999344 0.002817598583 0)
(0.3898574453 0.002698987393 0)
(0.3867422335 0.002587863749 0)
(0.383746938 0.002483604188 0)
(0.380864741 0.002385663286 0)
(0.378089311 0.002293556334 0)
(0.3754147579 0.002206845809 0)
(0.3728355959 0.002125133434 0)
(0.3703467113 0.002048050646 0)
(0.3679433409 0.001975247103 0)
(0.3656210577 0.001906388684 0)
(0.3633757554 0.001841165595 0)
(0.3612036231 0.001779299329 0)
(0.359101116 0.001720543865 0)
(0.357064927 0.001664683639 0)
(0.3550919599 0.001611529708 0)
(0.3531793062 0.001560914545 0)
(0.3513242267 0.001512685996 0)
(0.3495241381 0.001466699718 0)
(0.3477766077 0.001422812546 0)
(0.3460793528 0.001380882241 0)
(0.3444302368 0.001340772387 0)
(0.3428272622 0.001302356636 0)
(0.3412685596 0.001265520716 0)
(0.3397523759 0.001230163799 0)
(0.3382770619 0.001196199405 0)
(0.336841058 0.001163554716 0)
(0.3354428818 0.001132167251 0)
(0.3340811197 0.001101979097 0)
(0.3327544235 0.001072931199 0)
(0.3314615121 0.001044960852 0)
(0.3302011743 0.001018003357 0)
(0.3289722681 0.0009919956319 0)
(0.3277737184 0.0009668791538 0)
(0.3266045109 0.0009426014469 0)
(0.3254636866 0.000919116745 0)
(0.3243503355 0.000896386188 0)
(0.3232635897 0.0008743772888 0)
(0.3222026177 0.0008530621599 0)
(0.3211666205 0.0008324150726 0)
(0.3201548294 0.0008124102945 0)
(0.3191665067 0.0007930205888 0)
(0.3182009464 0.0007742167514 0)
(0.3172574756 0.000755968513 0)
(0.3163354548 0.0007382464204 0)
(0.3154342759 0.0007210236906 0)
(0.3145533598 0.0007042772642 0)
(0.3136921517 0.000687987817 0)
(0.3128501187 0.0006721389707 0)
(0.3120267464 0.0006567161213 0)
(0.3112215383 0.0006417053132 0)
(0.3104340145 0.0006270923973 0)
(0.3096637122 0.0006128626161 0)
(0.3089101858 0.0005990006959 0)
(0.3081730075 0.0005854914167 0)
(0.3074517663 0.0005723203284 0)
(0.3067460672 0.0005594742057 0)
(0.3060555299 0.0005469410494 0)
(0.3053797877 0.0005347098223 0)
(0.3047184865 0.0005227702003 0)
(0.3040712842 0.0005111125145 0)
(0.3034378498 0.0004997278288 0)
(0.3028178631 0.0004886080521 0)
(0.302211013 0.0004777458553 0)
(0.3016169975 0.000467134404 0)
(0.3010355226 0.0004567670172 0)
(0.3004663025 0.0004466369128 0)
(0.2999090595 0.0004367371624 0)
(0.2993635241 0.0004270607923 0)
(0.2988294349 0.0004176009124 0)
(0.2983065383 0.0004083508286 0)
(0.2977945885 0.0003993041745 0)
(0.2972933467 0.00039045501 0)
(0.2968025811 0.0003817978232 0)
(0.2963220661 0.0003733274408 0)
(0.2958515822 0.0003650389455 0)
(0.2953909158 0.0003569276423 0)
(0.2949398588 0.0003489890467 0)
(0.2944982081 0.0003412188482 0)
(0.2940657661 0.0003336128763 0)
(0.29364234 0.0003261670841 0)
(0.2932277417 0.0003188775341 0)
(0.2928217877 0.0003117403559 0)
(0.2924242993 0.0003047517092 0)
(0.2920351021 0.0002979077787 0)
(0.2916540262 0.0002912048064 0)
(0.291280906 0.000284639146 0)
(0.2909155803 0.0002782073528 0)
(0.2905578917 0.0002719062769 0)
(0.2902076866 0.0002657331132 0)
(0.2898648146 0.0002596853761 0)
(0.2895291283 0.0002537608463 0)
(0.2892004833 0.0002479574565 0)
(0.2888787374 0.0002422731605 0)
(0.2885637515 0.0002367058377 0)
(0.2882553886 0.0002312532493 0)
(0.287953515 0.0002259130538 0)
(0.2876579995 0.0002206828452 0)
(0.2873687135 0.0002155601825 0)
(0.2870855317 0.0002105425906 0)
(0.2868083314 0.0002056275744 0)
(0.2865369927 0.0002008126628 0)
(0.2862713986 0.000196095464 0)
(0.2860114348 0.0001914736942 0)
(0.2857569896 0.0001869451951 0)
(0.2855079539 0.0001825079546 0)
(0.2852642207 0.000178160118 0)
(0.2850256853 0.0001738999655 0)
(0.2847922452 0.000169725874 0)
(0.2845637997 0.0001656362794 0)
(0.28434025 0.0001616296433 0)
(0.2841214991 0.0001577044104 0)
(0.2839074522 0.0001538589808 0)
(0.283698016 0.0001500917073 0)
(0.2834930995 0.0001464009111 0)