cellI,x,y,z,S,epsilon,k,nut
0,0.00064993565,0,0.00065,1.68983269e-06,28.13325173,1e-15,3.199061412e-33
1,0.00194980695,0,0.00065,1.68983269e-06,28.13325173,1e-15,3.199061412e-33
2,0.00324967825,0,0.00065,1.68983269e-06,28.13325173,1e-15,3.199061412e-33
3,0.004549549549,0,0.00065,1.689832689e-06,28.13325173,1e-15,3.199061412e-33
4,0.005849420849,0,0.00065,1.68983269e-06,28.13325173,1e-15,3.199061412e-33
5,0.007149292149,0,0.00065,1.68983269e-06,28.13325173,1e-15,3.199061412e-33
6,0.008449163449,0,0.00065,1.68983269e-06,28.13325173,1e-15,3.199061412e-33
7,0.00974903475,0,0.00065,1.689832691e-06,28.13325173,1e-15,3.199061412e-33
8,0.01104890605,0,0.00065,1.68983269e-06,28.13325173,1e-15,3.199061412e-33
9,0.01234877735,0,0.00065,1.68983269e-06,28.13325173,1e-15,3.199061412e-33
10,0.01364864865,0,0.00065,1.68983269e-06,28.13325173,1e-15,3.199061412e-33
11,0.01494851995,0,0.00065,1.68983269e-06,28.13325173,1e-15,3.199061412e-33
12,0.01624839125,0,0.00065,1.68983269e-06,28.13325173,1e-15,3.199061412e-33
13,0.01754826255,0,0.00065,1.68983269e-06,28.13325173,1e-15,3.199061412e-33
14,0.01884813385,0,0.00065,1.68983269e-06,28.13325173,1e-15,3.199061412e-33
15,0.02014800515,0,0.00065,1.68983269e-06,28.13325173,1e-15,3.199061412e-33
16,0.02144787645,0,0.00065,1.68983269e-06,28.13325173,1e-15,3.199061412e-33
17,0.02274774775,0,0.00065,1.68983269e-06,28.13325173,1e-15,3.199061412e-33
18,0.02404761905,0,0.00065,1.68983269e-06,28.13325173,1e-15,3.199061412e-33
19,0.02534749035,0,0.00065,1.68983269e-06,28.13325173,1e-15,3.199061412e-33
20,0.02664736165,0,0.00065,1.68983269e-06,28.13325173,1e-15,3.199061412e-33
21,0.02794723295,0,0.00065,1.68983269e-06,28.13325173,1e-15,3.199061412e-33
22,0.02924710425,0,0.00065,1.68983269e-06,28.13325173,1e-15,3.199061412e-33
23,0.03054697555,0,0.00065,1.68983269e-06,28.13325173,1e-15,3.199061412e-33
24,0.03184684685,0,0.00065,1.68983269e-06,28.13325173,1e-15,3.199061412e-33
25,0.03314671815,0,0.00065,1.68983269e-06,28.13325173,1e-15,3.199061412e-33
26,0.03444658945,0,0.00065,1.68983269e-06,28.13325173,1e-15,3.199061412e-33
27,0.03574646075,0,0.00065,1.68983269e-06,28.13325173,1e-15,3.199061412e-33
28,0.03704633205,0,0.00065,1.68983269e-06,28.13325173,1e-15,3.199061412e-33
29,0.03834620335,0,0.00065,1.68983269e-06,28.13325173,1e-15,3.199061412e-33
30,0.03964607465,0,0.00065,1.68983269e-06,28.13325173,1e-15,3.199061412e-33
31,0.04094594595,0,0.00065,1.68983269e-06,28.13325173,1e-15,3.199061412e-33
32,0.04224581725,0,0.00065,1.68983269e-06,28.13325173,1e-15,3.199061412e-33
33,0.04354568855,0,0.00065,1.68983269e-06,28.13325173,1e-15,3.199061412e-33
34,0.04484555985,0,0.00065,1.68983269e-06,28.13325173,1e-15,3.199061412e-33
35,0.04614543115,0,0.00065,1.68983269e-06,28.13325173,1e-15,3.199061412e-33
36,0.04744530245,0,0.00065,1.68983269e-06,28.13325173,1e-15,3.199061412e-33
37,0.04874517375,0,0.00065,1.68983269e-06,28.13325173,1e-15,3.199061412e-33
38,0.05004504504,0,0.00065,1.689832677e-06,28.13325173,1e-15,3.199061412e-33
39,0.05134491634,0,0.00065,1.68983269e-06,28.13325173,1e-15,3.199061412e-33
40,0.05264478764,0,0.00065,1.68983269e-06,28.13325173,1e-15,3.199061412e-33
41,0.05394465894,0,0.00065,1.68983269e-06,28.13325173,1e-15,3.199061412e-33
42,0.05524453024,0,0.00065,1.68983269e-06,28.13325173,1e-15,3.199061412e-33
43,0.05654440154,0,0.00065,1.68983269e-06,28.13325173,1e-15,3.199061412e-33
44,0.05784427284,0,0.00065,1.68983269e-06,28.13325173,1e-15,3.199061412e-33
45,0.05914414414,0,0.00065,1.68983269e-06,28.13325173,1e-15,3.199061412e-33
46,0.06044401544,0,0.00065,1.68983269e-06,28.13325173,1e-15,3.199061412e-33
47,0.06174388674,0,0.00065,1.68983269e-06,28.13325173,1e-15,3.199061412e-33
48,0.06304375804,0,0.00065,1.68983269e-06,28.13325173,1e-15,3.199061412e-33
49,0.06434362934,0,0.00065,1.68983269e-06,28.13325173,1e-15,3.199061412e-33
50,0.06564350064,0,0.00065,1.68983269e-06,28.13325173,1e-15,3.199061412e-33
51,0.06694337194,0,0.00065,1.68983269e-06,28.13325173,1e-15,3.199061412e-33
52,0.06824324324,0,0.00065,1.68983269e-06,28.13325173,1e-15,3.199061412e-33
53,0.06954311454,0,0.00065,1.68983269e-06,28.13325173,1e-15,3.199061412e-33
54,0.07084298584,0,0.00065,1.68983269e-06,28.13325173,1e-15,3.199061412e-33
55,0.07214285714,0,0.00065,1.68983269e-06,28.13325173,1e-15,3.199061412e-33
56,0.07344272844,0,0.00065,1.68983269e-06,28.13325173,1e-15,3.199061412e-33
57,0.07474259974,0,0.00065,1.68983269e-06,28.13325173,1e-15,3.199061412e-33
58,0.07604247104,0,0.00065,1.68983269e-06,28.13325173,1e-15,3.199061412e-33
59,0.07734234234,0,0.00065,1.68983269e-06,28.13325173,1e-15,3.199061412e-33
60,0.07864221364,0,0.00065,1.68983269e-06,28.13325173,1e-15,3.199061412e-33
61,0.07994208494,0,0.00065,1.68983269e-06,28.13325173,1e-15,3.199061412e-33
62,0.08124195624,0,0.00065,1.68983269e-06,28.13325173,1e-15,3.199061412e-33
63,0.08254182754,0,0.00065,1.68983269e-06,28.13325173,1e-15,3.199061412e-33
64,0.08384169884,0,0.00065,1.68983269e-06,28.13325173,1e-15,3.199061412e-33
65,0.08514157014,0,0.00065,1.68983269e-06,28.13325173,1e-15,3.199061412e-33
66,0.08644144144,0,0.00065,1.68983269e-06,28.13325173,1e-15,3.199061412e-33
67,0.08774131274,0,0.00065,1.68983269e-06,28.13325173,1e-15,3.199061412e-33
68,0.08904118404,0,0.00065,1.68983269e-06,28.13325173,1e-15,3.199061412e-33
69,0.09034105534,0,0.00065,1.68983269e-06,28.13325173,1e-15,3.199061412e-33
70,0.09164092664,0,0.00065,1.68983269e-06,28.13325173,1e-15,3.199061412e-33
71,0.09294079794,0,0.00065,1.68983269e-06,28.13325173,1e-15,3.199061412e-33
72,0.09424066924,0,0.00065,1.68983269e-06,28.13325173,1e-15,3.199061412e-33
73,0.09554054054,0,0.00065,1.68983269e-06,28.13325173,1e-15,3.199061412e-33
74,0.09684041184,0,0.00065,1.68983269e-06,28.13325173,1e-15,3.199061412e-33
75,0.09814028314,0,0.00065,1.68983269e-06,28.13325173,1e-15,3.199061412e-33
76,0.09944015444,0,0.00065,1.689832703e-06,28.13325173,1e-15,3.199061412e-33
77,0.1007400258,0,0.00065,1.68983269e-06,28.13325173,1e-15,3.199061412e-33
78,0.102039897,0,0.00065,1.68983269e-06,28.13325173,1e-15,3.199061412e-33
79,0.1033397683,0,0.00065,1.68983269e-06,28.13325173,1e-15,3.199061412e-33
80,0.1046396396,0,0.00065,1.68983269e-06,28.13325173,1e-15,3.199061412e-33
81,0.1059395109,0,0.00065,1.68983269e-06,28.13325173,1e-15,3.199061412e-33
82,0.1072393822,0,0.00065,1.68983269e-06,28.13325173,1e-15,3.199061412e-33
83,0.1085392535,0,0.00065,1.68983269e-06,28.13325173,1e-15,3.199061412e-33
84,0.1098391248,0,0.00065,1.68983269e-06,28.13325173,1e-15,3.199061412e-33
85,0.1111389961,0,0.00065,1.68983269e-06,28.13325173,1e-15,3.199061412e-33
86,0.1124388675,0,0.00065,1.68983269e-06,28.13325173,1e-15,3.199061412e-33
87,0.1137387387,0,0.00065,1.68983269e-06,28.13325173,1e-15,3.199061412e-33
88,0.11503861,0,0.00065,1.68983269e-06,28.13325173,1e-15,3.199061412e-33
89,0.1163384813,0,0.00065,1.68983269e-06,28.13325173,1e-15,3.199061412e-33
90,0.1176383526,0,0.00065,1.68983269e-06,28.13325173,1e-15,3.199061412e-33
91,0.1189382239,0,0.00065,1.68983269e-06,28.13325173,1e-15,3.199061412e-33
92,0.1202380952,0,0.00065,1.68983269e-06,28.13325173,1e-15,3.199061412e-33
93,0.1215379665,0,0.00065,1.68983269e-06,28.13325173,1e-15,3.199061412e-33
94,0.1228378378,0,0.00065,1.68983269e-06,28.13325173,1e-15,3.199061412e-33
95,0.1241377092,0,0.00065,1.68983269e-06,28.13325173,1e-15,3.199061412e-33
96,0.1254375805,0,0.00065,1.68983269e-06,28.13325173,1e-15,3.199061412e-33
97,0.1267374518,0,0.00065,1.68983269e-06,28.13325173,1e-15,3.199061412e-33
98,0.1280373231,0,0.00065,1.68983269e-06,28.13325173,1e-15,3.199061412e-33
99,0.1293371943,0,0.00065,1.68983269e-06,28.13325173,1e-15,3.199061412e-33
100,0.1306370656,0,0.00065,1.68983269e-06,28.13325173,1e-15,3.199061412e-33
101,0.1319369369,0,0.00065,1.68983269e-06,28.13325173,1e-15,3.199061412e-33
102,0.1332368083,0,0.00065,1.68983269e-06,28.13325173,1e-15,3.199061412e-33
103,0.1345366796,0,0.00065,1.68983269e-06,28.13325173,1e-15,3.199061412e-33
104,0.1358365508,0,0.00065,1.68983269e-06,28.13325173,1e-15,3.199061412e-33
105,0.1371364222,0,0.00065,1.68983269e-06,28.13325173,1e-15,3.199061412e-33
106,0.1384362934,0,0.00065,1.68983269e-06,28.13325173,1e-15,3.199061412e-33
107,0.1397361648,0,0.00065,1.68983269e-06,28.13325173,1e-15,3.199061412e-33
108,0.141036036,0,0.00065,1.68983269e-06,28.13325173,1e-15,3.199061412e-33
109,0.1423359074,0,0.00065,1.68983269e-06,28.13325173,1e-15,3.199061412e-33
110,0.1436357786,0,0.00065,1.68983269e-06,28.13325173,1e-15,3.199061412e-33
111,0.1449356499,0,0.00065,1.68983269e-06,28.13325173,1e-15,3.199061412e-33
112,0.1462355213,0,0.00065,1.68983269e-06,28.13325173,1e-15,3.199061412e-33
113,0.1475353925,0,0.00065,1.68983269e-06,28.13325173,1e-15,3.199061412e-33
114,0.1488352638,0,0.00065,1.68983269e-06,28.13325173,1e-15,3.199061412e-33
115,0.1501351352,0,0.00065,1.68983269e-06,28.13325173,1e-15,3.199061412e-33
116,0.1514350065,0,0.00065,1.68983269e-06,28.13325173,1e-15,3.199061412e-33
117,0.1527348777,0,0.00065,1.68983269e-06,28.13325173,1e-15,3.199061412e-33
118,0.154034749,0,0.00065,1.68983269e-06,28.13325173,1e-15,3.199061412e-33
119,0.1553346203,0,0.00065,1.68983269e-06,28.13325173,1e-15,3.199061412e-33
120,0.1566344916,0,0.00065,1.68983269e-06,28.13325173,1e-15,3.199061412e-33
121,0.157934363,0,0.00065,1.68983269e-06,28.13325173,1e-15,3.199061412e-33
122,0.1592342342,0,0.00065,1.68983269e-06,28.13325173,1e-15,3.199061412e-33
123,0.1605341055,0,0.00065,1.68983269e-06,28.13325173,1e-15,3.199061412e-33
124,0.1618339768,0,0.00065,1.68983269e-06,28.13325173,1e-15,3.199061412e-33
125,0.1631338481,0,0.00065,1.68983269e-06,28.13325173,1e-15,3.199061412e-33
126,0.1644337195,0,0.00065,1.68983269e-06,28.13325173,1e-15,3.199061412e-33
127,0.1657335907,0,0.00065,1.68983269e-06,28.13325173,1e-15,3.199061412e-33
128,0.167033462,0,0.00065,1.68983269e-06,28.13325173,1e-15,3.199061412e-33
129,0.1683333333,0,0.00065,1.68983269e-06,28.13325173,1e-15,3.199061412e-33
130,0.1696332046,0,0.00065,1.68983269e-06,28.13325173,1e-15,3.199061412e-33
131,0.1709330759,0,0.00065,1.68983269e-06,28.13325173,1e-15,3.199061412e-33
132,0.1722329473,0,0.00065,1.68983269e-06,28.13325173,1e-15,3.199061412e-33
133,0.1735328186,0,0.00065,1.68983269e-06,28.13325173,1e-15,3.199061412e-33
134,0.1748326899,0,0.00065,1.68983269e-06,28.13325173,1e-15,3.199061412e-33
135,0.1761325612,0,0.00065,1.68983269e-06,28.13325173,1e-15,3.199061412e-33
136,0.1774324324,0,0.00065,1.68983269e-06,28.13325173,1e-15,3.199061412e-33
137,0.1787323037,0,0.00065,1.68983269e-06,28.13325173,1e-15,3.199061412e-33
138,0.180032175,0,0.00065,1.68983269e-06,28.13325173,1e-15,3.199061412e-33
139,0.1813320463,0,0.00065,1.68983269e-06,28.13325173,1e-15,3.199061412e-33
140,0.1826319176,0,0.00065,1.68983269e-06,28.13325173,1e-15,3.199061412e-33
141,0.1839317889,0,0.00065,1.68983269e-06,28.13325173,1e-15,3.199061412e-33
142,0.1852316602,0,0.00065,1.68983269e-06,28.13325173,1e-15,3.199061412e-33
143,0.1865315315,0,0.00065,1.68983269e-06,28.13325173,1e-15,3.199061412e-33
144,0.1878314028,0,0.00065,1.68983269e-06,28.13325173,1e-15,3.199061412e-33
145,0.1891312741,0,0.00065,1.68983269e-06,28.13325173,1e-15,3.199061412e-33
146,0.1904311454,0,0.00065,1.68983269e-06,28.13325173,1e-15,3.199061412e-33
147,0.1917310168,0,0.00065,1.68983269e-06,28.13325173,1e-15,3.199061412e-33
148,0.193030888,0,0.00065,1.68983269e-06,28.13325173,1e-15,3.199061412e-33
149,0.1943307593,0,0.00065,1.68983269e-06,28.13325173,1e-15,3.199061412e-33
150,0.1956306306,0,0.00065,1.68983269e-06,28.13325173,1e-15,3.199061412e-33
151,0.1969305019,0,0.00065,1.68983269e-06,28.13325173,1e-15,3.199061412e-33
152,0.1982303732,0,0.00065,1.68983269e-06,28.13325173,1e-15,3.199061412e-33
153,0.1995302445,0,0.00065,1.68983269e-06,28.13325173,1e-15,3.199061412e-33
154,0.2008301158,0,0.00065,1.68983269e-06,28.13325173,1e-15,3.199061412e-33
155,0.2021299872,0,0.00065,1.68983269e-06,28.13325173,1e-15,3.199061412e-33
156,0.2034298584,0,0.00065,1.68983269e-06,28.13325173,1e-15,3.199061412e-33
157,0.2047297297,0,0.00065,1.68983269e-06,28.13325173,1e-15,3.199061412e-33
158,0.206029601,0,0.00065,1.68983269e-06,28.13325173,1e-15,3.199061412e-33
159,0.2073294724,0,0.00065,1.68983269e-06,28.13325173,1e-15,3.199061412e-33
160,0.2086293437,0,0.00065,1.68983269e-06,28.13325173,1e-15,3.199061412e-33
161,0.2099292149,0,0.00065,1.68983269e-06,28.13325173,1e-15,3.199061412e-33
162,0.2112290863,0,0.00065,1.68983269e-06,28.13325173,1e-15,3.199061412e-33
163,0.2125289576,0,0.00065,1.68983269e-06,28.13325173,1e-15,3.199061412e-33
164,0.2138288288,0,0.00065,1.68983269e-06,28.13325173,1e-15,3.199061412e-33
165,0.2151287002,0,0.00065,1.68983269e-06,28.13325173,1e-15,3.199061412e-33
166,0.2164285714,0,0.00065,1.68983269e-06,28.13325173,1e-15,3.199061412e-33
167,0.2177284428,0,0.00065,1.68983269e-06,28.13325173,1e-15,3.199061412e-33
168,0.2190283141,0,0.00065,1.68983269e-06,28.13325173,1e-15,3.199061412e-33
169,0.2203281853,0,0.00065,1.68983269e-06,28.13325173,1e-15,3.199061412e-33
170,0.2216280566,0,0.00065,1.68983269e-06,28.13325173,1e-15,3.199061412e-33
171,0.2229279279,0,0.00065,1.68983269e-06,28.13325173,1e-15,3.199061412e-33
172,0.2242277992,0,0.00065,1.68983269e-06,28.13325173,1e-15,3.199061412e-33
173,0.2255276706,0,0.00065,1.68983269e-06,28.13325173,1e-15,3.199061412e-33
174,0.2268275418,0,0.00065,1.68983269e-06,28.13325173,1e-15,3.199061412e-33
175,0.2281274132,0,0.00065,1.68983269e-06,28.13325173,1e-15,3.199061412e-33
176,0.2294272844,0,0.00065,1.68983269e-06,28.13325173,1e-15,3.199061412e-33
177,0.2307271557,0,0.00065,1.68983269e-06,28.13325173,1e-15,3.199061412e-33
178,0.232027027,0,0.00065,1.68983269e-06,28.13325173,1e-15,3.199061412e-33
179,0.2333268984,0,0.00065,1.68983269e-06,28.13325173,1e-15,3.199061412e-33
180,0.2346267697,0,0.00065,1.68983269e-06,28.13325173,1e-15,3.199061412e-33
181,0.2359266409,0,0.00065,1.68983269e-06,28.13325173,1e-15,3.199061412e-33
182,0.2372265122,0,0.00065,1.68983269e-06,28.13325173,1e-15,3.199061412e-33
183,0.2385263836,0,0.00065,1.68983269e-06,28.13325173,1e-15,3.199061412e-33
184,0.2398262548,0,0.00065,1.68983269e-06,28.13325173,1e-15,3.199061412e-33
185,0.2411261262,0,0.00065,1.68983269e-06,28.13325173,1e-15,3.199061412e-33
186,0.2424259974,0,0.00065,1.68983269e-06,28.13325173,1e-15,3.199061412e-33
187,0.2437258687,0,0.00065,1.68983269e-06,28.13325173,1e-15,3.199061412e-33
188,0.24502574,0,0.00065,1.68983269e-06,28.13325173,1e-15,3.199061412e-33
189,0.2463256113,0,0.00065,1.68983269e-06,28.13325173,1e-15,3.199061412e-33
190,0.2476254827,0,0.00065,1.68983269e-06,28.13325173,1e-15,3.199061412e-33
191,0.2489253539,0,0.00065,1.68983269e-06,28.13325173,1e-15,3.199061412e-33
192,0.2502252253,0,0.00065,1.68983269e-06,28.13325173,1e-15,3.199061412e-33
193,0.2515250965,0,0.00065,1.68983269e-06,28.13325173,1e-15,3.199061412e-33
194,0.2528249678,0,0.00065,1.68983269e-06,28.13325173,1e-15,3.199061412e-33
195,0.2541248392,0,0.00065,1.68983269e-06,28.13325173,1e-15,3.199061412e-33
196,0.2554247104,0,0.00065,1.68983269e-06,28.13325173,1e-15,3.199061412e-33
197,0.2567245818,0,0.00065,1.68983269e-06,28.13325173,1e-15,3.199061412e-33
198,0.258024453,0,0.00065,1.68983269e-06,28.13325173,1e-15,3.199061412e-33
199,0.2593243243,0,0.00065,1.68983269e-06,28.13325173,1e-15,3.199061412e-33
200,0.2606241957,0,0.00065,1.68983269e-06,28.13325173,1e-15,3.199061412e-33
201,0.261924067,0,0.00065,1.68983269e-06,28.13325173,1e-15,3.199061412e-33
202,0.2632239383,0,0.00065,1.68983269e-06,28.13325173,1e-15,3.199061412e-33
203,0.2645238095,0,0.00065,1.68983269e-06,28.13325173,1e-15,3.199061412e-33
204,0.2658236808,0,0.00065,1.68983269e-06,28.13325173,1e-15,3.199061412e-33
205,0.2671235521,0,0.00065,1.68983269e-06,28.13325173,1e-15,3.199061412e-33
206,0.2684234235,0,0.00065,1.68983269e-06,28.13325173,1e-15,3.199061412e-33
207,0.2697232948,0,0.00065,1.68983269e-06,28.13325173,1e-15,3.199061412e-33
208,0.271023166,0,0.00065,1.68983269e-06,28.13325173,1e-15,3.199061412e-33
209,0.2723230373,0,0.00065,1.68983269e-06,28.13325173,1e-15,3.199061412e-33
210,0.2736229086,0,0.00065,1.68983269e-06,28.13325173,1e-15,3.199061412e-33
211,0.27492278,0,0.00065,1.68983269e-06,28.13325173,1e-15,3.199061412e-33
212,0.2762226512,0,0.00065,1.68983269e-06,28.13325173,1e-15,3.199061412e-33
213,0.2775225225,0,0.00065,1.68983269e-06,28.13325173,1e-15,3.199061412e-33
214,0.2788223938,0,0.00065,1.68983269e-06,28.13325173,1e-15,3.199061412e-33
215,0.2801222651,0,0.00065,1.68983269e-06,28.13325173,1e-15,3.199061412e-33
216,0.2814221365,0,0.00065,1.68983269e-06,28.13325173,1e-15,3.199061412e-33
217,0.2827220078,0,0.00065,1.68983269e-06,28.13325173,1e-15,3.199061412e-33
218,0.284021879,0,0.00065,1.68983269e-06,28.13325173,1e-15,3.199061412e-33
219,0.2853217504,0,0.00065,1.68983269e-06,28.13325173,1e-15,3.199061412e-33
220,0.2866216216,0,0.00065,1.68983269e-06,28.13325173,1e-15,3.199061412e-33
221,0.287921493,0,0.00065,1.68983269e-06,28.13325173,1e-15,3.199061412e-33
222,0.2892213643,0,0.00065,1.68983269e-06,28.13325173,1e-15,3.199061412e-33
223,0.2905212356,0,0.00065,1.68983269e-06,28.13325173,1e-15,3.199061412e-33
224,0.2918211068,0,0.00065,1.68983269e-06,28.13325173,1e-15,3.199061412e-33
225,0.2931209781,0,0.00065,1.68983269e-06,28.13325173,1e-15,3.199061412e-33
226,0.2944208495,0,0.00065,1.68983269e-06,28.13325173,1e-15,3.199061412e-33
227,0.2957207207,0,0.00065,1.68983269e-06,28.13325173,1e-15,3.199061412e-33
228,0.297020592,0,0.00065,1.68983269e-06,28.13325173,1e-15,3.199061412e-33
229,0.2983204634,0,0.00065,1.68983269e-06,28.13325173,1e-15,3.199061412e-33
230,0.2996203346,0,0.00065,1.68983269e-06,28.13325173,1e-15,3.199061412e-33
231,0.300920206,0,0.00065,1.68983269e-06,28.13325173,1e-15,3.199061412e-33
232,0.3022200772,0,0.00065,1.68983269e-06,28.13325173,1e-15,3.199061412e-33
233,0.3035199485,0,0.00065,1.68983269e-06,28.13325173,1e-15,3.199061412e-33
234,0.3048198199,0,0.00065,1.68983269e-06,28.13325173,1e-15,3.199061412e-33
235,0.3061196911,0,0.00065,1.68983269e-06,28.13325173,1e-15,3.199061412e-33
236,0.3074195625,0,0.00065,1.68983269e-06,28.13325173,1e-15,3.199061412e-33
237,0.3087194337,0,0.00065,1.68983269e-06,28.13325173,1e-15,3.199061412e-33
238,0.310019305,0,0.00065,1.68983269e-06,28.13325173,1e-15,3.199061412e-33
239,0.3113191764,0,0.00065,1.68983269e-06,28.13325173,1e-15,3.199061412e-33
240,0.3126190476,0,0.00065,1.68983269e-06,28.13325173,1e-15,3.199061412e-33
241,0.3139189189,0,0.00065,1.68983269e-06,28.13325173,1e-15,3.199061412e-33
242,0.3152187902,0,0.00065,1.68983269e-06,28.13325173,1e-15,3.199061412e-33
243,0.3165186615,0,0.00065,1.68983269e-06,28.13325173,1e-15,3.199061412e-33
244,0.3178185329,0,0.00065,1.68983269e-06,28.13325173,1e-15,3.199061412e-33
245,0.3191184041,0,0.00065,1.68983269e-06,28.13325173,1e-15,3.199061412e-33
246,0.3204182755,0,0.00065,1.68983269e-06,28.13325173,1e-15,3.199061412e-33
247,0.3217181467,0,0.00065,1.68983269e-06,28.13325173,1e-15,3.199061412e-33
248,0.323018018,0,0.00065,1.68983269e-06,28.13325173,1e-15,3.199061412e-33
249,0.3243178893,0,0.00065,1.68983269e-06,28.13325173,1e-15,3.199061412e-33
250,0.3256177607,0,0.00065,1.68983269e-06,28.13325173,1e-15,3.199061412e-33
251,0.326917632,0,0.00065,1.68983269e-06,28.13325173,1e-15,3.199061412e-33
252,0.3282175032,0,0.00065,1.68983269e-06,28.13325173,1e-15,3.199061412e-33
253,0.3295173745,0,0.00065,1.68983269e-06,28.13325173,1e-15,3.199061412e-33
254,0.3308172458,0,0.00065,1.68983269e-06,28.13325173,1e-15,3.199061412e-33
255,0.3321171172,0,0.00065,1.68983269e-06,28.13325173,1e-15,3.199061412e-33
256,0.3334169884,0,0.00065,1.68983269e-06,28.13325173,1e-15,3.199061412e-33
257,0.3347168597,0,0.00065,1.68983269e-06,28.13325173,1e-15,3.199061412e-33
258,0.336016731,0,0.00065,1.68983269e-06,28.13325173,1e-15,3.199061412e-33
259,0.3373166023,0,0.00065,1.68983269e-06,28.13325173,1e-15,3.199061412e-33
260,0.3386164737,0,0.00065,1.68983269e-06,28.13325173,1e-15,3.199061412e-33
261,0.339916345,0,0.00065,1.68983269e-06,28.13325173,1e-15,3.199061412e-33
262,0.3412162163,0,0.00065,1.68983269e-06,28.13325173,1e-15,3.199061412e-33
263,0.3425160875,0,0.00065,1.68983269e-06,28.13325173,1e-15,3.199061412e-33
264,0.3438159588,0,0.00065,1.68983269e-06,28.13325173,1e-15,3.199061412e-33
265,0.3451158302,0,0.00065,1.68983269e-06,28.13325173,1e-15,3.199061412e-33
266,0.3464157014,0,0.00065,1.68983269e-06,28.13325173,1e-15,3.199061412e-33
267,0.3477155727,0,0.00065,1.68983269e-06,28.13325173,1e-15,3.199061412e-33
268,0.3490154441,0,0.00065,1.68983269e-06,28.13325173,1e-15,3.199061412e-33
269,0.3503153153,0,0.00065,1.68983269e-06,28.13325173,1e-15,3.199061412e-33
270,0.3516151866,0,0.00065,1.68983269e-06,28.13325173,1e-15,3.199061412e-33
271,0.3529150579,0,0.00065,1.68983269e-06,28.13325173,1e-15,3.199061412e-33
272,0.3542149292,0,0.00065,1.68983269e-06,28.13325173,1e-15,3.199061412e-33
273,0.3555148006,0,0.00065,1.68983269e-06,28.13325173,1e-15,3.199061412e-33
274,0.3568146719,0,0.00065,1.68983269e-06,28.13325173,1e-15,3.199061412e-33
275,0.3581145432,0,0.00065,1.68983269e-06,28.13325173,1e-15,3.199061412e-33
276,0.3594144144,0,0.00065,1.68983269e-06,28.13325173,1e-15,3.199061412e-33
277,0.3607142857,0,0.00065,1.68983269e-06,28.13325173,1e-15,3.199061412e-33
278,0.362014157,0,0.00065,1.68983269e-06,28.13325173,1e-15,3.199061412e-33
279,0.3633140283,0,0.00065,1.68983269e-06,28.13325173,1e-15,3.199061412e-33
280,0.3646138996,0,0.00065,1.68983269e-06,28.13325173,1e-15,3.199061412e-33
281,0.3659137709,0,0.00065,1.68983269e-06,28.13325173,1e-15,3.199061412e-33
282,0.3672136422,0,0.00065,1.68983269e-06,28.13325173,1e-15,3.199061412e-33
283,0.3685135135,0,0.00065,1.68983269e-06,28.13325173,1e-15,3.199061412e-33
284,0.3698133849,0,0.00065,1.68983269e-06,28.13325173,1e-15,3.199061412e-33
285,0.3711132561,0,0.00065,1.68983269e-06,28.13325173,1e-15,3.199061412e-33
286,0.3724131274,0,0.00065,1.68983269e-06,28.13325173,1e-15,3.199061412e-33
287,0.3737129987,0,0.00065,1.68983269e-06,28.13325173,1e-15,3.199061412e-33
288,0.37501287,0,0.00065,1.68983269e-06,28.13325173,1e-15,3.199061412e-33
289,0.3763127414,0,0.00065,1.68983269e-06,28.13325173,1e-15,3.199061412e-33
290,0.3776126126,0,0.00065,1.68983269e-06,28.13325173,1e-15,3.199061412e-33
291,0.3789124839,0,0.00065,1.68983269e-06,28.13325173,1e-15,3.199061412e-33
292,0.3802123553,0,0.00065,1.68983269e-06,28.13325173,1e-15,3.199061412e-33
293,0.3815122265,0,0.00065,1.68983269e-06,28.13325173,1e-15,3.199061412e-33
294,0.3828120979,0,0.00065,1.68983269e-06,28.13325173,1e-15,3.199061412e-33
295,0.3841119692,0,0.00065,1.68983269e-06,28.13325173,1e-15,3.199061412e-33
296,0.3854118404,0,0.00065,1.68983269e-06,28.13325173,1e-15,3.199061412e-33
297,0.3867117117,0,0.00065,1.68983269e-06,28.13325173,1e-15,3.199061412e-33
298,0.388011583,0,0.00065,1.68983269e-06,28.13325173,1e-15,3.199061412e-33
299,0.3893114544,0,0.00065,1.68983269e-06,28.13325173,1e-15,3.199061412e-33
300,0.3906113256,0,0.00065,1.68983269e-06,28.13325173,1e-15,3.199061412e-33
301,0.3919111969,0,0.00065,1.68983269e-06,28.13325173,1e-15,3.199061412e-33
302,0.3932110682,0,0.00065,1.68983269e-06,28.13325173,1e-15,3.199061412e-33
303,0.3945109395,0,0.00065,1.68983269e-06,28.13325173,1e-15,3.199061412e-33
304,0.3958108109,0,0.00065,1.68983269e-06,28.13325173,1e-15,3.199061412e-33
305,0.3971106822,0,0.00065,1.68983269e-06,28.13325173,1e-15,3.199061412e-33
306,0.3984105534,0,0.00065,1.68983269e-06,28.13325173,1e-15,3.199061412e-33
307,0.3997104248,0,0.00065,1.68983269e-06,28.13325173,1e-15,3.199061412e-33
308,0.4010102961,0,0.00065,1.68983269e-06,28.13325173,1e-15,3.199061412e-33
309,0.4023101674,0,0.00065,1.68983269e-06,28.13325173,1e-15,3.199061412e-33
310,0.4036100386,0,0.00065,1.68983269e-06,28.13325173,1e-15,3.199061412e-33
311,0.4049099099,0,0.00065,1.68983269e-06,28.13325173,1e-15,3.199061412e-33
312,0.4062097812,0,0.00065,1.68983269e-06,28.13325173,1e-15,3.199061412e-33
313,0.4075096525,0,0.00065,1.68983269e-06,28.13325173,1e-15,3.199061412e-33
314,0.4088095239,0,0.00065,1.68983269e-06,28.13325173,1e-15,3.199061412e-33
315,0.4101093951,0,0.00065,1.68983269e-06,28.13325173,1e-15,3.199061412e-33
316,0.4114092665,0,0.00065,1.68983269e-06,28.13325173,1e-15,3.199061412e-33
317,0.4127091377,0,0.00065,1.68983269e-06,28.13325173,1e-15,3.199061412e-33
318,0.414009009,0,0.00065,1.68983269e-06,28.13325173,1e-15,3.199061412e-33
319,0.4153088804,0,0.00065,1.68983269e-06,28.13325173,1e-15,3.199061412e-33
320,0.4166087516,0,0.00065,1.68983269e-06,28.13325173,1e-15,3.199061412e-33
321,0.4179086229,0,0.00065,1.68983269e-06,28.13325173,1e-15,3.199061412e-33
322,0.4192084943,0,0.00065,1.68983269e-06,28.13325173,1e-15,3.199061412e-33
323,0.4205083655,0,0.00065,1.68983269e-06,28.13325173,1e-15,3.199061412e-33
324,0.4218082369,0,0.00065,1.68983269e-06,28.13325173,1e-15,3.199061412e-33
325,0.4231081081,0,0.00065,1.68983269e-06,28.13325173,1e-15,3.199061412e-33
326,0.4244079794,0,0.00065,1.68983269e-06,28.13325173,1e-15,3.199061412e-33
327,0.4257078508,0,0.00065,1.68983269e-06,28.13325173,1e-15,3.199061412e-33
328,0.4270077221,0,0.00065,1.68983269e-06,28.13325173,1e-15,3.199061412e-33
329,0.4283075934,0,0.00065,1.68983269e-06,28.13325173,1e-15,3.199061412e-33
330,0.4296074646,0,0.00065,1.68983269e-06,28.13325173,1e-15,3.199061412e-33
331,0.4309073359,0,0.00065,1.68983269e-06,28.13325173,1e-15,3.199061412e-33
332,0.4322072073,0,0.00065,1.68983269e-06,28.13325173,1e-15,3.199061412e-33
333,0.4335070786,0,0.00065,1.68983269e-06,28.13325173,1e-15,3.199061412e-33
334,0.4348069498,0,0.00065,1.68983269e-06,28.13325173,1e-15,3.199061412e-33
335,0.4361068211,0,0.00065,1.68983269e-06,28.13325173,1e-15,3.199061412e-33
336,0.4374066924,0,0.00065,1.68983269e-06,28.13325173,1e-15,3.199061412e-33
337,0.4387065638,0,0.00065,1.68983269e-06,28.13325173,1e-15,3.199061412e-33
338,0.4400064351,0,0.00065,1.68983269e-06,28.13325173,1e-15,3.199061412e-33
339,0.4413063064,0,0.00065,1.68983269e-06,28.13325173,1e-15,3.199061412e-33
340,0.4426061777,0,0.00065,1.68983269e-06,28.13325173,1e-15,3.199061412e-33
341,0.4439060489,0,0.00065,1.68983269e-06,28.13325173,1e-15,3.199061412e-33
342,0.4452059203,0,0.00065,1.68983269e-06,28.13325173,1e-15,3.199061412e-33
343,0.4465057916,0,0.00065,1.68983269e-06,28.13325173,1e-15,3.199061412e-33
344,0.4478056629,0,0.00065,1.68983269e-06,28.13325173,1e-15,3.199061412e-33
345,0.4491055341,0,0.00065,1.68983269e-06,28.13325173,1e-15,3.199061412e-33
346,0.4504054054,0,0.00065,1.68983269e-06,28.13325173,1e-15,3.199061412e-33
347,0.4517052767,0,0.00065,1.68983269e-06,28.13325173,1e-15,3.199061412e-33
348,0.4530051481,0,0.00065,1.68983269e-06,28.13325173,1e-15,3.199061412e-33
349,0.4543050193,0,0.00065,1.68983269e-06,28.13325173,1e-15,3.199061412e-33
350,0.4556048907,0,0.00065,1.68983269e-06,28.13325173,1e-15,3.199061412e-33
351,0.4569047619,0,0.00065,1.68983269e-06,28.13325173,1e-15,3.199061412e-33
352,0.4582046332,0,0.00065,1.68983269e-06,28.13325173,1e-15,3.199061412e-33
353,0.4595045046,0,0.00065,1.68983269e-06,28.13325173,1e-15,3.199061412e-33
354,0.4608043759,0,0.00065,1.68983269e-06,28.13325173,1e-15,3.199061412e-33
355,0.4621042472,0,0.00065,1.68983269e-06,28.13325173,1e-15,3.199061412e-33
356,0.4634041185,0,0.00065,1.68983269e-06,28.13325173,1e-15,3.199061412e-33
357,0.4647039897,0,0.00065,1.68983269e-06,28.13325173,1e-15,3.199061412e-33
358,0.4660038611,0,0.00065,1.68983269e-06,28.13325173,1e-15,3.199061412e-33
359,0.4673037323,0,0.00065,1.68983269e-06,28.13325173,1e-15,3.199061412e-33
360,0.4686036036,0,0.00065,1.68983269e-06,28.13325173,1e-15,3.199061412e-33
361,0.469903475,0,0.00065,1.68983269e-06,28.13325173,1e-15,3.199061412e-33
362,0.4712033462,0,0.00065,1.68983269e-06,28.13325173,1e-15,3.199061412e-33
363,0.4725032176,0,0.00065,1.68983269e-06,28.13325173,1e-15,3.199061412e-33
364,0.4738030888,0,0.00065,1.68983269e-06,28.13325173,1e-15,3.199061412e-33
365,0.4751029602,0,0.00065,1.68983269e-06,28.13325173,1e-15,3.199061412e-33
366,0.4764028315,0,0.00065,1.68983269e-06,28.13325173,1e-15,3.199061412e-33
367,0.4777027027,0,0.00065,1.68983269e-06,28.13325173,1e-15,3.199061412e-33
368,0.4790025741,0,0.00065,1.68983269e-06,28.13325173,1e-15,3.199061412e-33
369,0.4803024453,0,0.00065,1.68983269e-06,28.13325173,1e-15,3.199061412e-33
370,0.4816023167,0,0.00065,1.68983269e-06,28.13325173,1e-15,3.199061412e-33
371,0.482902188,0,0.00065,1.68983269e-06,28.13325173,1e-15,3.199061412e-33
372,0.4842020593,0,0.00065,1.68983269e-06,28.13325173,1e-15,3.199061412e-33
373,0.4855019306,0,0.00065,1.68983269e-06,28.13325173,1e-15,3.199061412e-33
374,0.4868018018,0,0.00065,1.68983269e-06,28.13325173,1e-15,3.199061412e-33
375,0.4881016732,0,0.00065,1.68983269e-06,28.13325173,1e-15,3.199061412e-33
376,0.4894015445,0,0.00065,1.68983269e-06,28.13325173,1e-15,3.199061412e-33
377,0.4907014157,0,0.00065,1.68983269e-06,28.13325173,1e-15,3.199061412e-33
378,0.4920012871,0,0.00065,1.68983269e-06,28.13325173,1e-15,3.199061412e-33
379,0.4933011583,0,0.00065,1.68983269e-06,28.13325173,1e-15,3.199061412e-33
380,0.4946010297,0,0.00065,1.68983269e-06,28.13325173,1e-15,3.199061412e-33
381,0.4959009009,0,0.00065,1.68983269e-06,28.13325173,1e-15,3.199061412e-33
382,0.4972007723,0,0.00065,1.68983269e-06,28.13325173,1e-15,3.199061412e-33
383,0.4985006435,0,0.00065,1.68983269e-06,28.13325173,1e-15,3.199061412e-33
384,0.4998005148,0,0.00065,1.68983269e-06,28.13325173,1e-15,3.199061412e-33
385,0.5011003861,0,0.00065,1.68983269e-06,28.13325173,1e-15,3.199061412e-33
386,0.5024002574,0,0.00065,1.68983269e-06,28.13325173,1e-15,3.199061412e-33
387,0.5037001287,0,0.00065,1.68983269e-06,28.13325173,1e-15,3.199061412e-33
388,0.505,0,0.00065,1.68983256e-06,28.13325173,1e-15,3.199061412e-33
389,0.5062998712,0,0.00065,1.68983269e-06,28.13325173,1e-15,3.199061412e-33
390,0.5075997425,0,0.00065,1.68983269e-06,28.13325173,1e-15,3.199061412e-33
391,0.5088996139,0,0.00065,1.68983269e-06,28.13325173,1e-15,3.199061412e-33
392,0.5101994851,0,0.00065,1.68983269e-06,28.13325173,1e-15,3.199061412e-33
393,0.5114993564,0,0.00065,1.68983269e-06,28.13325173,1e-15,3.199061412e-33
394,0.5127992278,0,0.00065,1.68983269e-06,28.13325173,1e-15,3.199061412e-33