/*--------------------------------*- C++ -*----------------------------------*\
| =========                 |                                                 |
| \\      /  F ield         | OpenFOAM: The Open Source CFD Toolbox           |
|  \\    /   O peration     | Version:  2312                                  |
|   \\  /    A nd           | Website:  www.openfoam.com                      |
|    \\/     M anipulation  |                                                 |
\*---------------------------------------------------------------------------*/
FoamFile
{
    version     2.0;
    format      ascii;
    arch        "LSB;label=32;scalar=64";
    class       volScalarField;
    location    "459";
    object      epsilon;
}
// * * * * * * * * * * * * * * * * * * * * * * * * * * * * * * * * * * * * * //

dimensions      [0 2 -3 0 0 0 0];

internalField   nonuniform List<scalar> 
63546
(
0.4014533076
0.4195393809
0.436983162
0.4538080358
0.4700158674
0.4856014854
0.500556024
0.5148701946
0.5285362989
0.5415489832
0.5539054437
0.5656054425
0.5766512671
0.5870476765
0.5968017987
0.6059229538
0.6144224439
0.6223133321
0.6296102188
0.6363290213
0.6424867671
0.6481014069
0.6531916395
0.6577767438
0.6618764185
0.6655106365
0.6686995104
0.6714631668
0.673821631
0.6757947285
0.6774020045
0.6786626576
0.6795954813
0.6802188118
0.6805504838
0.6806077962
0.6804074837
0.6799656966
0.6792979848
0.6784192883
0.6773439359
0.676085647
0.6746575357
0.6730721159
0.67134131
0.6694764609
0.6674883465
0.6653871959
0.6631827069
0.660884062
0.6584999441
0.656038555
0.653507634
0.6509144777
0.6482659591
0.6455685465
0.6428283225
0.6400510022
0.6372419523
0.6344062077
0.6315484897
0.6286732211
0.6257845424
0.6228863273
0.6199821979
0.6170755391
0.6141695124
0.611267069
0.608370962
0.6054837586
0.6026078513
0.599745469
0.5968986867
0.594069436
0.5912595141
0.5884705974
0.5857042412
0.582961886
0.5802448706
0.5775544379
0.5748917405
0.5722578481
0.5696537525
0.5670803735
0.5645385639
0.5620291137
0.5595527545
0.5571101618
0.5547019565
0.5523287026
0.5499908949
0.5476888241
0.5454219056
0.5431896542
0.5409916126
0.5388273455
0.536696445
0.5345985295
0.5325332413
0.5305002476
0.5284992389
0.5265299178
0.5245919902
0.5226851624
0.5208091431
0.5189636422
0.5171483697
0.5153630343
0.5136073431
0.5118810001
0.5101837061
0.5085151585
0.5068750507
0.5052630721
0.5036789083
0.502122241
0.5005927475
0.4990901013
0.4976139717
0.4961640245
0.4947399222
0.4933413248
0.4919678891
0.4906192699
0.4892951188
0.4879950856
0.4867188179
0.4854659617
0.4842361613
0.4830290598
0.4818442989
0.48068152
0.4795403632
0.4784204686
0.4773214759
0.4762430252
0.4751847569
0.4741463116
0.473127331
0.4721274577
0.4711463356
0.4701836099
0.4692389276
0.4683119373
0.46740229
0.4665096393
0.46563364
0.464773949
0.4639302263
0.4631021342
0.4622893377
0.4614915048
0.4607083067
0.4599394178
0.4591845158
0.4584432821
0.4577154017
0.4570005631
0.4562984589
0.4556087854
0.4549312431
0.4542655367
0.4536113747
0.4529684703
0.4523365409
0.4517153081
0.4511044982
0.450503842
0.4499130746
0.449331936
0.4487601708
0.4481975279
0.4476437612
0.4470986293
0.4465618954
0.4460333274
0.4455126979
0.4449997847
0.4444943698
0.4439962404
0.4435051882
0.4430210097
0.4425435063
0.4420724838
0.441607753
0.4411491291
0.4406964323
0.4402494869
0.4398081221
0.4393721716
0.4389414734
0.4385158698
0.4380952078
0.4376793383
0.4372681168
0.4368614027
0.4364590597
0.4360609553
0.4356669613
0.4352769533
0.4348908105
0.4345084162
0.4341296573
0.4337544245
0.4333826118
0.433014117
0.4326488411
0.4322866887
0.4319275674
0.4315713881
0.4312180649
0.4308675148
0.4305196579
0.430174417
0.4298317179
0.4294914893
0.4291536622
0.4288181705
0.4284849505
0.4281539411
0.4278250834
0.427498321
0.4271735997
0.4268508674
0.4265300743
0.4262111724
0.4258941159
0.4255788609
0.4252653651
0.4249535884
0.424643492
0.4243350392
0.4240281946
0.4237229244
0.4234191964
0.4231169798
0.4228162452
0.4225169645
0.4222191109
0.4219226588
0.4216275837
0.4213338625
0.421041473
0.4207503939
0.4204606051
0.4201720874
0.4198848224
0.4195987928
0.419313982
0.419030374
0.418747954
0.4184667074
0.4181866209
0.4179076813
0.4176298763
0.4173531942
0.4170776238
0.4168031545
0.4165297761
0.4162574791
0.4159862543
0.415716093
0.4154469868
0.4151789279
0.4149119088
0.4146459222
0.4143809614
0.4141170197
0.413854091
0.4135921693
0.4133312489
0.4130713243
0.4128123902
0.4125544416
0.4122974737
0.4120414817
0.4117864611
0.4115324077
0.4112793172
0.4110271856
0.4107760088
0.4105257832
0.4102765049
0.4100281704
0.4097807761
0.4095343187
0.4092887947
0.4090442009
0.408800534
0.4085577908
0.4083159683
0.4080750633
0.4078350727
0.4075959935
0.4073578225
0.4071205569
0.4068841935
0.4066487294
0.4064141617
0.4061804872
0.4059477031
0.4057158065
0.4054847943
0.4052546636
0.4050254114
0.4047970348
0.4045695308
0.4043428964
0.4041171286
0.4038922245
0.403668181
0.4034449951
0.4032226638
0.403001184
0.4027805526
0.4025607667
0.4023418231
0.4021237186
0.4019064502
0.4016900147
0.4014744091
0.40125963
0.4010456743
0.4008325389
0.4006202205
0.4004087158
0.4001980218
0.3999881349
0.3997790522
0.3995707701
0.3993632855
0.399156595
0.3989506953
0.3987455831
0.398541255
0.3983377077
0.3981349378
0.3979329419
0.3977317166
0.3975312584
0.397331564
0.3971326299
0.3969344528
0.3967370291
0.3965403554
0.3963444284
0.3961492444
0.3959548001
0.3957610921
0.3955681169
0.395375871
0.395184351
0.3949935534
0.3948034748
0.3946141118
0.3944254609
0.3942375188
0.3940502818
0.3938637467
0.3936779099
0.3934927681
0.3933083179
0.3931245558
0.3929414784
0.3927590822
0.3925773641
0.3923963204
0.392215948
0.3920362433
0.3918572032
0.3916788241
0.3915011029
0.3913240362
0.3911476207
0.390971853
0.39079673
0.3906222483
0.3904484048
0.390275196
0.3901026188
0.3899306701
0.3897593464
0.3895886448
0.3894185619
0.3892490946
0.3890802397
0.3889119942
0.3887443549
0.3885773186
0.3884108823
0.388245043
0.3880797975
0.3879151428
0.3877510758
0.3875875936
0.3874246931
0.3872623713
0.3871006253
0.386939452
0.3867788485
0.3866188119
0.3864593392
0.3863004275
0.3861420739
0.3859842756
0.3858270296
0.3856703331
0.3855141832
0.3853585772
0.3852035122
0.3850489854
0.384894994
0.3847415354
0.3845886066
0.3844362051
0.384284328
0.3841329727
0.3839821365
0.3838318168
0.3836820109
0.3835327161
0.3833839298
0.3832356495
0.3830878725
0.3829405963
0.3827938183
0.382647536
0.3825017469
0.3823564484
0.3822116381
0.3820673135
0.3819234721
0.3817801115
0.3816372293
0.381494823
0.3813528902
0.3812114287
0.3810704359
0.3809299096
0.3807898474
0.3806502471
0.3805111062
0.3803724225
0.3802341938
0.3800964177
0.3799590921
0.3798222147
0.3796857833
0.3795497956
0.3794142495
0.3792791428
0.3791444733
0.379010239
0.3788764375
0.3787430669
0.378610125
0.3784776097
0.3783455189
0.3782138506
0.3780826027
0.3779517733
0.3778213602
0.3776913614
0.3775617751
0.3774325991
0.3773038317
0.3771754707
0.3770475143
0.3769199605
0.3767928075
0.3766660534
0.3765396963
0.3764137343
0.3762881656
0.3761629883
0.3760382006
0.3759138008
0.3757897869
0.3756661573
0.3755429101
0.3754200436
0.3752975561
0.3751754457
0.3750537108
0.3749323497
0.3748113606
0.3746907419
0.374570492
0.3744506091
0.3743310916
0.374211938
0.3740931465
0.3739747157
0.3738566438
0.3737389294
0.3736215709
0.3735045667
0.3733879154
0.3732716154
0.3731556651
0.3730400632
0.3729248081
0.3728098984
0.3726953326
0.3725811093
0.372467227
0.3723536845
0.3722404802
0.3721276128
0.3720150809
0.3719028832
0.3717910184
0.3716794852
0.3715682821
0.3714574081
0.3713468617
0.3712366416
0.3711267468
0.3710171759
0.3709079277
0.370799001
0.3706903947
0.3705821075
0.3704741383
0.370366486
0.3702591495
0.3701521277
0.3700454195
0.3699390239
0.3698329398
0.3697271663
0.3696217023
0.369516547
0.3694116993
0.3693071583
0.3692029233
0.3690989932
0.3689953673
0.3688920447
0.3687890248
0.3686863066
0.3685838896
0.368481773
0.3683799561
0.3682784384
0.3681772192
0.3680762981
0.3679756744
0.3678753478
0.3677753178
0.367675584
0.3675761461
0.3674770039
0.367378157
0.3672796053
0.3671813487
0.3670833871
0.3669857205
0.3668883489
0.3667912725
0.3666944914
0.3665980059
0.3665018162
0.3664059229
0.3663103264
0.3662150272
0.366120026
0.3660253236
0.3659309208
0.3658368186
0.365743018
0.3656495201
0.3655563264
0.3654634382
0.3653708569
0.3652785844
0.3651866224
0.3650949729
0.3650036379
0.3649126199
0.3648219212
0.3647315445
0.3646414926
0.3645517685
0.3644623755
0.364373317
0.3642845967
0.3641962186
0.3641081867
0.3640205056
0.3639331799
0.3638462147
0.3637596154
0.3636733874
0.363587537
0.3635020703
0.3634169941
0.3633323155
0.3632480421
0.3631641818
0.363080743
0.3629977347
0.3629151662
0.3628330475
0.3627513892
0.3626702022
0.3625894983
0.3625092899
0.36242959
0.3623504123
0.3622717715
0.3621936828
0.3621161623
0.3620392272
0.3619628953
0.3618871855
0.3618121178
0.3617377131
0.3616639936
0.3615909826
0.3615187046
0.3614471855
0.3613764527
0.3613065349
0.3612374623
0.3611692669
0.3611019823
0.3610356439
0.3609702891
0.3609059572
0.3608426896
0.36078053
0.3607195245
0.3606597214
0.3606011721
0.3605439303
0.3604880529
0.3604335997
0.3603806341
0.3603292227
0.3602794359
0.3602313479
0.3601850374
0.3601405873
0.3600980851
0.3600576242
0.3600193069
0.3599832401
0.3599494407
0.359917984
0.3598890176
0.3598626856
0.3598391347
0.3598185135
0.3598009739
0.3597866721
0.3597757707
0.3597684389
0.359764854
0.3597652025
0.3597696808
0.3597784955
0.3597918649
0.359810019
0.3598332011
0.3598616686
0.3598956937
0.3599355648
0.3599815877
0.3600340866
0.3600934054
0.3601599096
0.3602339875
0.360316052
0.3604065424
0.3605059267
0.3606147034
0.3607334043
0.3608625967
0.3610028871
0.3611549232
0.3613193987
0.3614970563
0.3616886924
0.3618951618
0.3621173831
0.3623563446
0.3626131111
0.3628888312
0.3631847461
0.3635021986
0.3638426446
0.3642076646
0.3645989784
0.3650184611
0.3654681611
0.365950322
0.3664674074
0.3670221294
0.367617483
0.3682567854
0.3689437236
0.3696824102
0.3704774497
0.3713340172
0.3722579523
0.3732558664
0.3743352637
0.3755046593
0.376773659
0.3781528846
0.3796533109
0.3812848682
0.3830943273
0.02227330199
0.03568696486
0.04581219849
0.05410978028
0.06122242876
0.06747811686
0.07306648498
0.07810904737
0.0826889548
0.08686602003
0.0906853515
0.09418231536
0.09738512723
0.1003169053
0.102997428
0.1054439696
0.1076719853
0.1096955518
0.1115276579
0.1131803739
0.1146649364
0.1159918723
0.1171711415
0.1182122134
0.1191241055
0.1199154351
0.1205944742
0.1211691682
0.1216471193
0.1220355613
0.1223413645
0.1225710668
0.1227308977
0.1228267827
0.1228643487
0.1228489368
0.1227856111
0.1226791719
0.1225341507
0.1223548035
0.1221451301
0.1219088963
0.1216496488
0.1213707207
0.1210752351
0.1207661126
0.1204460761
0.1201176703
0.1197832848
0.1194451587
0.1191053777
0.1187658805
0.1184284689
0.1180948167
0.1177664772
0.1174448914
0.1171313948
0.1168272243
0.1165335241
0.1162513488
0.1159816779
0.1157254258
0.11548344
0.1152565032
0.1150453392
0.1148506181
0.1146729598
0.1145129388
0.1143710868
0.114247897
0.1141438267
0.1140592998
0.1139947097
0.1139504196
0.1139267657
0.113924069
0.1139426406
0.1139827697
0.1140447215
0.1141287444
0.1142350731
0.1143639294
0.1145155246
0.1146900608
0.114887733
0.1151087315
0.115353246
0.1156214743
0.1159136404
0.1162300167
0.1165707469
0.1169301359
0.1172767503
0.1176127193
0.1179397365
0.1182593037
0.1185727494
0.118881238
0.1191857612
0.119487133
0.119786061
0.1200831928
0.1203790814
0.1206741952
0.1209689311
0.1212636232
0.1215585504
0.1218539437
0.1221499924
0.1224468476
0.1227446269
0.1230434178
0.1233432815
0.1236442561
0.1239463596
0.1242495918
0.1245539377
0.1248593688
0.1251658444
0.125473309
0.1257816973
0.1260909363
0.1264009459
0.1267116394
0.1270229247
0.1273347052
0.1276468805
0.1279593467
0.1282719974
0.1285847241
0.1288974166
0.1292099634
0.129522252
0.1298341693
0.1301456019
0.1304564367
0.1307665611
0.1310758629
0.1313842307
0.1316915546
0.1319977257
0.1323026372
0.1326061836
0.1329082607
0.1332087668
0.1335076036
0.1338046761
0.134099891
0.1343931567
0.1346843844
0.1349734877
0.1352603828
0.135544989
0.1358272282
0.136107025
0.1363843073
0.1366590055
0.1369310535
0.1372003876
0.1374669475
0.1377306758
0.137991518
0.1382494228
0.1385043417
0.1387562293
0.1390050431
0.1392507435
0.1394932941
0.1397326611
0.1399688136
0.1402017237
0.140431366
0.140657718
0.1408807596
0.1411004734
0.1413168445
0.1415298606
0.1417395117
0.1419457902
0.1421486909
0.1423482108
0.1425443491
0.1427371069
0.1429264877
0.1431124969
0.1432951417
0.1434744315
0.1436503771
0.1438229916
0.1439922892
0.1441582861
0.144321
0.1444804498
0.1446366561
0.1447896406
0.1449394266
0.1450860382
0.145229501
0.1453698415
0.1455070872
0.1456412665
0.1457724087
0.1459005441
0.1460257034
0.1461479185
0.1462672217
0.146383646
0.1464972252
0.1466079933
0.146715985
0.1468212352
0.1469237791
0.1470236525
0.1471208913
0.1472155316
0.1473076097
0.1473971622
0.1474842256
0.1475688368
0.1476510325
0.1477308495
0.1478083246
0.1478834946
0.1479563961
0.1480270657
0.1480955399
0.148161855
0.1482260472
0.1482881524
0.1483482065
0.1484062448
0.1484623027
0.1485164152
0.1485686169
0.1486189424
0.1486674256
0.1487141004
0.1487590002
0.1488021581
0.1488436068
0.1488833788
0.1489215059
0.1489580199
0.1489929519
0.1490263327
0.1490581926
0.1490885616
0.1491174693
0.1491449447
0.1491710164
0.1491957128
0.1492190616
0.1492410903
0.1492618258
0.1492812946
0.1492995227
0.1493165359
0.1493323593
0.1493470177
0.1493605356
0.1493729367
0.1493842446
0.1493944824
0.1494036727
0.1494118378
0.1494189996
0.1494251794
0.1494303985
0.1494346773
0.1494380363
0.1494404951
0.1494420734
0.1494427901
0.1494426641
0.1494417136
0.1494399566
0.1494374108
0.1494340933
0.1494300211
0.1494252107
0.1494196783
0.1494134397
0.1494065104
0.1493989057
0.1493906404
0.149381729
0.1493721859
0.149362025
0.1493512601
0.1493399045
0.1493279713
0.1493154734
0.1493024232
0.1492888331
0.149274715
0.1492600806
0.1492449413
0.1492293084
0.1492131928
0.1491966052
0.1491795561
0.1491620556
0.1491441139
0.1491257407
0.1491069456
0.149087738
0.149068127
0.1490481215
0.1490277303
0.149006962
0.148985825
0.1489643275
0.1489424773
0.1489202825
0.1488977506
0.1488748891
0.1488517054
0.1488282066
0.1488043997
0.1487802917
0.1487558891
0.1487311986
0.1487062265
0.1486809792
0.1486554628
0.1486296833
0.1486036467
0.1485773585
0.1485508245
0.1485240503
0.1484970411
0.1484698024
0.1484423392
0.1484146567
0.1483867598
0.1483586534
0.1483303423
0.1483018311
0.1482731244
0.1482442267
0.1482151422
0.1481858753
0.1481564302
0.148126811
0.1480970217
0.1480670663
0.1480369486
0.1480066724
0.1479762414
0.1479456593
0.1479149296
0.1478840558
0.1478530414
0.1478218897
0.147790604
0.1477591876
0.1477276437
0.1476959753
0.1476641856
0.1476322776
0.1476002541
0.1475681181
0.1475358724
0.1475035197
0.1474710629
0.1474385045
0.1474058472
0.1473730935
0.1473402461
0.1473073074
0.1472742798
0.1472411657
0.1472079676
0.1471746877
0.1471413283
0.1471078917
0.14707438
0.1470407954
0.1470071401
0.1469734161
0.1469396255
0.1469057702
0.1468718523
0.1468378737
0.1468038363
0.1467697419
0.1467355925
0.1467013897
0.1466671355
0.1466328315
0.1465984796
0.1465640813
0.1465296384
0.1464951525
0.1464606253
0.1464260584
0.1463914532
0.1463568113
0.1463221342
0.1462874235
0.1462526805
0.1462179067
0.1461831036
0.1461482724
0.1461134146
0.1460785314
0.1460436243
0.1460086945
0.1459737433
0.1459387718
0.1459037815
0.1458687733
0.1458337487
0.1457987086
0.1457636543
0.1457285869
0.1456935075
0.1456584172
0.1456233171
0.1455882082
0.1455530916
0.1455179683
0.1454828393
0.1454477057
0.1454125683
0.1453774282
0.1453422862
0.1453071434
0.1452720007
0.1452368589
0.1452017189
0.1451665816
0.1451314479
0.1450963186
0.1450611946
0.1450260766
0.1449909655
0.144955862
0.144920767
0.1448856813
0.1448506055
0.1448155404
0.1447804868
0.1447454454
0.1447104169
0.144675402
0.1446404014
0.1446054159
0.144570446
0.1445354924
0.1445005558
0.1444656369
0.1444307361
0.1443958542
0.1443609918
0.1443261494
0.1442913277
0.1442565272
0.1442217485
0.1441869921
0.1441522586
0.1441175486
0.1440828625
0.1440482009
0.1440135644
0.1439789533
0.1439443684
0.1439098099
0.1438752785
0.1438407746
0.1438062986
0.1437718511
0.1437374326
0.1437030434
0.1436686839
0.1436343548
0.1436000563
0.143565789
0.1435315531
0.1434973492
0.1434631777
0.1434290389
0.1433949332
0.143360861
0.1433268227
0.1432928186
0.1432588492
0.1432249147
0.1431910155
0.1431571519
0.1431233244
0.1430895332
0.1430557786
0.143022061
0.1429883808
0.1429547381
0.1429211334
0.142887567
0.142854039
0.1428205499
0.1427870999
0.1427536893
0.1427203183
0.1426869873
0.1426536965
0.1426204462
0.1425872366
0.1425540679
0.1425209405
0.1424878545
0.1424548103
0.142421808
0.1423888479
0.1423559302
0.1423230552
0.142290223
0.1422574339
0.1422246881
0.1421919858
0.1421593271
0.1421267124
0.1420941417
0.1420616152
0.1420291332
0.1419966958
0.1419643032
0.1419319555
0.1418996529
0.1418673956
0.1418351838
0.1418030175
0.141770897
0.1417388224
0.1417067938
0.1416748114
0.1416428753
0.1416109857
0.1415791427
0.1415473464
0.1415155969
0.1414838944
0.1414522389
0.1414206307
0.1413890697
0.1413575561
0.14132609
0.1412946715
0.1412633007
0.1412319777
0.1412007026
0.1411694755
0.1411382964
0.1411071655
0.1410760827
0.1410450483
0.1410140623
0.1409831247
0.1409522356
0.140921395
0.1408906032
0.14085986
0.1408291656
0.14079852
0.1407679233
0.1407373756
0.1407068768
0.140676427
0.1406460264
0.1406156748
0.1405853724
0.1405551192
0.1405249152
0.1404947605
0.1404646551
0.140434599
0.1404045922
0.1403746349
0.1403447269
0.1403148683
0.1402850592
0.1402552996
0.1402255894
0.1401959287
0.1401663175
0.1401367558
0.1401072436
0.1400777808
0.1400483676
0.140019004
0.1399896898
0.1399604251
0.1399312098
0.1399020441
0.1398729278
0.139843861
0.1398148435
0.1397858755
0.1397569569
0.1397280876
0.1396992676
0.1396704969
0.1396417754
0.1396131031
0.1395844799
0.1395559058
0.1395273808
0.1394989047
0.1394704775
0.139442099
0.1394137694
0.1393854884
0.1393572559
0.1393290721
0.1393009367
0.1392728497
0.1392448109
0.1392168203
0.1391888777
0.139160983
0.1391331359
0.1391053363
0.1390775841
0.1390498789
0.1390222206
0.138994609
0.1389670438
0.1389395246
0.1389120513
0.1388846233
0.1388572405
0.1388299023
0.1388026082
0.1387753579
0.1387481506
0.1387209859
0.1386938629
0.1386667808
0.1386397387
0.1386127356
0.1385857701
0.1385588409
0.1385319462
0.1385050838
0.1384782505
0.1384514398
0.1384246383
0.1383978184
0.1383709346
0.138344494
0.1383187569
0.1382932182
0.1382675354
0.1382416679
0.1382155689
0.138189188
0.1381624772
0.1381353923
0.138107892
0.1380799362
0.1380514852
0.1380224992
0.1379929383
0.1379627622
0.1379319296
0.1379003979
0.1378681232
0.1378350594
0.1378011582
0.1377663688
0.1377306375
0.1376939072
0.1376561172
0.1376172023
0.137577093
0.1375357143
0.1374929855
0.1374488194
0.1374031215
0.1373557895
0.1373067116
0.1372557666
0.1372028216
0.1371477312
0.137090336
0.1370304605
0.1369679111
0.1369024738
0.1368339113
0.1367619596
0.1366863242
0.1366066753
0.1365226424
0.1364338077
0.1363396976
0.1362397731
0.1361334174
0.136019921
0.135898462
0.1357680816
0.1356276529
0.1354758383
0.1353110344
0.1351312948
0.134934224
0.1347168239
0.1344752673
0.1342045523
0.1338979539
0.1335461194
0.1331355099
0.1326455936
0.1320435303
0.1312741349
0.1301478464
0.009467290205
0.0121549846
0.01479726878
0.01729020517
0.01961990771
0.02179483665
0.02382749993
0.02572985591
0.02751237875
0.02918399467
0.03075223027
0.03222354038
0.03360341161
0.03489658482
0.03610728703
0.03723931335
0.03829619346
0.03928125519
0.04019766332
0.04104844873
0.04183649696
0.04256456865
0.04323533756
0.04385140057
0.04441528166
0.04492944447
0.04539630828
0.0458182481
0.04619758813
0.04653658374
0.04683741934
0.04710221794
0.04733304547
0.04753190807
0.04770074982
0.04784145489
0.04795584804
0.04804569729
0.04811270914
0.04815851709
0.04818468605
0.04819272073
0.04818406579
0.04816010627
0.04812216868
0.04807152141
0.04800937175
0.04793686443
0.04785508991
0.04776508956
0.04766785416
0.04756432586
0.04745539983
0.04734192496
0.0472247055
0.04710450291
0.0469820376
0.0468579907
0.0467330056
0.04660769082
0.04648262027
0.04635833518
0.0462353464
0.04611413535
0.04599515585
0.04587883569
0.04576557808
0.04565576307
0.04554974888
0.04544787315
0.04535045423
0.04525779228
0.0451701704
0.04508785563
0.04501110011
0.04494014275
0.04487521108
0.0448165208
0.0447642762
0.04471867116
0.0446798903
0.04464811023
0.04462349918
0.04460621809
0.04459642157
0.04459425897
0.04459987559
0.04461341413
0.04463501645
0.04466482497
0.04470296182
0.04474934743
0.04480331815
0.04486439186
0.04493215408
0.04500625878
0.0450864228
0.04517241498
0.04526400399
0.04535990118
0.04545816078
0.04555875915
0.04566166768
0.04576686574
0.04587433799
0.04598407232
0.04609605867
0.04621028832
0.04632675317
0.04644544507
0.04656635504
0.04668947289
0.04681478703
0.04694228417
0.04707194922
0.04720376516
0.04733771316
0.04747377255
0.04761192064
0.04775213315
0.04789438171
0.04803863622
0.04818486469
0.04833303321
0.04848310612
0.04863504605
0.04878881399
0.04894436937
0.04910167024
0.04926067328
0.04942133394
0.04958360641
0.04974744371
0.04991279775
0.05007961954
0.05024785934
0.05041746673
0.05058839054
0.05076057891
0.05093397944
0.05110853927
0.05128420515
0.05146092344
0.05163864021
0.05181730133
0.05199685286
0.05217724102
0.05235841206
0.05254031215
0.05272288752
0.05290608449
0.05308984966
0.05327412986
0.0534588723
0.05364402455
0.05382953466
0.0540153511
0.05420142292
0.05438769968
0.05457413161
0.05476066947
0.05494726478
0.05513386972
0.05532043719
0.05550692085
0.05569327516
0.05587945539
0.05606541767
0.056251119
0.05643651724
0.05662157115
0.05680624039
0.05699048557
0.05717426815
0.05735755053
0.05754029605
0.05772246903
0.05790403474
0.05808495947
0.05826521045
0.05844475592
0.05862356504
0.05880160796
0.05897885584
0.05915528081
0.05933085598
0.0595055555
0.05967935445
0.05985222894
0.06002415597
0.06019511356
0.06036508066
0.06053403713
0.06070196381
0.06086884241
0.06103465558
0.06119938687
0.06136302072
0.06152554237
0.06168693795
0.06184719442
0.06200629954
0.06216424183
0.06232101066
0.06247659616
0.06263098928
0.06278418173
0.06293616597
0.06308693513
0.06323648303
0.06338480413
0.06353189358
0.06367774716
0.06382236127
0.0639657329
0.06410785965
0.06424873968
0.06438837173
0.06452675502
0.06466388934
0.06479977498
0.0649344127
0.06506780375
0.06519994979
0.06533085298
0.06546051585
0.06558894137
0.06571613285
0.06584209403
0.06596682896
0.06609034207
0.06621263808
0.06633372204
0.06645359929
0.06657227547
0.06668975645
0.06680604841
0.06692115775
0.06703509111
0.06714785535
0.06725945753
0.06736990492
0.06747920496
0.06758736524
0.06769439353
0.06780029773
0.06790508588
0.06800876611
0.0681113467
0.06821283602
0.06831324256
0.06841257491
0.0685108417
0.06860805164
0.0687042135
0.06879933611
0.06889342835
0.06898649915
0.06907855745
0.06916961224
0.06925967249
0.06934874723
0.06943684548
0.06952397627
0.06961014864
0.06969537163
0.06977965426
0.06986300555
0.06994543449
0.07002695004
0.07010756115
0.07018727673
0.07026610564
0.07034405673
0.07042113878
0.07049736054
0.07057273071
0.07064725792
0.07072095077
0.07079381778
0.07086586744
0.07093710813
0.07100754821
0.07107719596
0.07114605959
0.07121414725
0.07128146704
0.07134802702
0.07141383517
0.07147889941
0.07154322759
0.07160682745
0.07166970669
0.07173187289
0.07179333358
0.07185409621
0.07191416814
0.07197355668
0.07203226903
0.07209031235
0.07214769369
0.07220442006
0.07226049837
0.07231593545
0.07237073809
0.07242491297
0.07247846671
0.07253140585
0.07258373688
0.07263546619
0.07268660011
0.07273714488
0.07278710671
0.0728364917
0.07288530589
0.07293355527
0.07298124573
0.07302838311
0.07307497318
0.07312102164
0.07316653412
0.0732115162
0.07325597338
0.07329991109
0.07334333471
0.07338624956
0.07342866087
0.07347057384
0.0735119936
0.07355292521
0.07359337369
0.07363334399
0.07367284101
0.0737118696
0.07375043455
0.07378854059
0.07382619238
0.07386339456
0.07390015166
0.0739364682
0.07397234862
0.07400779733
0.07404281867
0.07407741695
0.07411159641
0.07414536127
0.07417871567
0.0742116637
0.07424420943
0.07427635686
0.07430810995
0.07433947264
0.0743704488
0.07440104227
0.07443125684
0.07446109627
0.07449056428
0.07451966452
0.07454840063
0.07457677621
0.0746047948
0.0746324599
0.07465977499
0.07468674347
0.07471336874
0.07473965416
0.07476560304
0.07479121866
0.07481650428
0.07484146311
0.07486609833
0.0748904131
0.07491441052
0.07493809368
0.07496146563
0.07498452938
0.07500728793
0.07502974423
0.07505190119
0.07507376171
0.07509532866
0.07511660485
0.0751375931
0.07515829618
0.07517871681
0.07519885772
0.07521872158
0.07523831105
0.07525762878
0.07527667736
0.07529545939
0.07531397742
0.07533223401
0.07535023166
0.07536797284
0.07538546001
0.0754026956
0.07541968202
0.07543642164
0.07545291682
0.0754691699
0.0754851832
0.07550095899
0.07551649956
0.07553180714
0.07554688396
0.07556173221
0.07557635406
0.07559075167
0.07560492718
0.07561888269
0.07563262029
0.07564614207
0.07565945006
0.0756725463
0.0756854328
0.07569811155
0.07571058453
0.07572285369
0.07573492097
0.07574678828
0.07575845752
0.07576993058
0.07578120932
0.07579229559
0.07580319121
0.07581389801
0.07582441776
0.07583475226
0.07584490327
0.07585487252
0.07586466176
0.07587427269
0.07588370702
0.07589296642
0.07590205257
0.07591096711
0.07591971168
0.07592828791
0.07593669739
0.07594494173
0.07595302251
0.07596094128
0.07596869961
0.07597629904
0.07598374109
0.07599102727
0.07599815909
0.07600513803
0.07601196555
0.07601864311
0.07602517215
0.07603155409
0.07603779036
0.07604388236
0.07604983148
0.07605563909
0.07606130655
0.07606683523
0.07607222645
0.07607748154
0.07608260181
0.07608758858
0.07609244313
0.07609716675
0.0761017607
0.07610622624
0.07611056464
0.07611477711
0.07611886489
0.07612282919
0.07612667123
0.07613039218
0.07613399325
0.07613747559
0.07614084038
0.07614408877
0.07614722191
0.07615024091
0.07615314692
0.07615594103
0.07615862435
0.07616119797
0.07616366296
0.0761660204
0.07616827133
0.0761704168
0.07617245787
0.07617439554
0.07617623086
0.07617796482
0.07617959844
0.07618113271
0.07618256861
0.07618390712
0.07618514922
0.07618629584
0.07618734795
0.07618830649
0.07618917239
0.07618994656
0.07619062993
0.07619122339
0.07619172784
0.07619214416
0.07619247324
0.07619271593
0.07619287311
0.07619294562
0.07619293432
0.07619284004
0.07619266363
0.0761924059
0.07619206766
0.07619164974
0.07619115291
0.07619057798
0.07618992571
0.07618919688
0.07618839226
0.07618751259
0.07618655863
0.0761855311
0.07618443075
0.07618325828
0.07618201441
0.07618069985
0.07617931529
0.07617786142
0.07617633892
0.07617474847
0.07617309074
0.07617136637
0.07616957603
0.07616772034
0.07616579995
0.07616381547
0.07616176751
0.07615965669
0.07615748359
0.07615524881
0.07615295292
0.07615059649
0.07614818009
0.07614570426
0.07614316955
0.07614057649
0.0761379256
0.07613521741
0.0761324524
0.07612963109
0.07612675394
0.07612382145
0.07612083406
0.07611779223
0.0761146964
0.07611154701
0.07610834448
0.0761050892
0.07610178158
0.07609842199
0.07609501082
0.07609154842
0.07608803513
0.07608447128
0.0760808572
0.07607719317
0.07607347951
0.07606971646
0.07606590429
0.07606204324
0.07605813352
0.07605417535
0.07605016891
0.07604611436
0.07604201185
0.07603786151
0.07603366344
0.07602941772
0.07602512442
0.07602078356
0.07601639516
0.07601195919
0.07600747563
0.07600294439
0.07599836537
0.07599373845
0.07598906345
0.07598434018
0.07597956841
0.07597474787
0.07596987824
0.07596495919
0.07595999031
0.07595497117
0.07594990129
0.07594478014
0.07593960715
0.07593438167
0.07592910303
0.07592377047
0.07591838317
0.07591294028
0.07590744084
0.07590188385
0.0758962682
0.07589059273
0.0758848562
0.07587905727
0.07587319452
0.07586726644
0.07586127144
0.07585520783
0.0758490738
0.07584286741
0.07583658662
0.07583022921
0.07582379286
0.07581727509
0.07581067329
0.07580398468
0.0757972063
0.07579033504
0.0757833676
0.07577630046
0.07576912994
0.07576185209
0.07575446276
0.07574695755
0.0757393318
0.07573158058
0.07572369865
0.07571568047
0.07570752017
0.07569921154
0.07569074796
0.07568212243
0.07567332749
0.07566435521
0.07565519713
0.0756458442
0.07563628671
0.0756265141
0.07561651473
0.07560627542
0.07559578119
0.07558501601
0.07557396316
0.07556261941
0.07555098543
0.07553936395
0.07552791907
0.07551626558
0.07550429183
0.07549196441
0.07547924267
0.0754660847
0.07545244901
0.07543829387
0.07542357652
0.07540825278
0.07539227697
0.07537560172
0.07535817786
0.07533995411
0.07532087695
0.07530089031
0.07527993535
0.07525795023
0.07523486979
0.07521062522
0.07518514375
0.07515834824
0.07513015673
0.07510048203
0.07506923117
0.0750363048
0.07500159662
0.07496499264
0.07492637036
0.07488559794
0.07484253313
0.0747970222
0.07474889858
0.07469798146
0.07464407403
0.07458696161
0.07452640935
0.07446215967
0.07439392921
0.07432140521
0.07424424133
0.07416205263
0.07407440948
0.07398083026
0.07388077249
0.07377362185
0.07365867847
0.07353513977
0.07340207846
0.07325841417
0.07310287605
0.07293395282
0.07274982471
0.07254826879
0.07232652445
0.07208109805
0.07180747285
0.07149967007
0.07114957443
0.07074589457
0.07027257314
0.06970647477
0.06900965695
0.008054900426
0.008765002904
0.009607099229
0.01050486475
0.01141726341
0.01232233595
0.01320825396
0.01406864898
0.0149001921
0.01570125753
0.01647117577
0.0172098316
0.0179174009
0.01859423174
0.01924078154
0.01985755714
0.02044511982
0.02100410002
0.021535156
0.02203898217
0.02251627242
0.02296770616
0.02339397834
0.02379579238
0.02417385506
0.02452887665
0.02486157774
0.02517268858
0.02546294868
0.02573309251
0.02598384505
0.02621592741
0.02643005793
0.02662694932
0.02680730681
0.02697182764
0.02712119924
0.02725610437
0.02737721588
0.02748518587
0.02758065056
0.02766423424
0.02773655128
0.02779820228
0.02784977149
0.02789182839
0.02792492112
0.02794954046
0.02796616822
0.02797531139
0.02797745827
0.02797308041