/*--------------------------------*- C++ -*----------------------------------*\
| =========                 |                                                 |
| \\      /  F ield         | OpenFOAM: The Open Source CFD Toolbox           |
|  \\    /   O peration     | Version:  2312                                  |
|   \\  /    A nd           | Website:  www.openfoam.com                      |
|    \\/     M anipulation  |                                                 |
\*---------------------------------------------------------------------------*/
FoamFile
{
    version     2.0;
    format      ascii;
    arch        "LSB;label=32;scalar=64";
    class       volScalarField;
    location    "459";
    object      k;
}
// * * * * * * * * * * * * * * * * * * * * * * * * * * * * * * * * * * * * * //

dimensions      [0 2 -2 0 0 0 0];

internalField   nonuniform List<scalar> 
63546
(
0.007905841445
0.008141540016
0.008365679235
0.008579056495
0.008782127802
0.008975212589
0.009158546076
0.009332326134
0.009496741555
0.009651983474
0.00979824953
0.009935745521
0.01006468623
0.01018529602
0.01029780875
0.01040246691
0.01049952022
0.01058922419
0.01067183869
0.01074762637
0.01081685143
0.01087977839
0.01093667109
0.01098779166
0.01103339955
0.01107375066
0.0111090966
0.01113968395
0.01116575357
0.01118754013
0.0112052717
0.01121916948
0.01122944765
0.01123631309
0.01123996532
0.01124059636
0.01123839074
0.0112335255
0.01122617024
0.01121648718
0.01120463132
0.0111907506
0.01117498606
0.011157472
0.01113833616
0.01111769992
0.01109567851
0.01107238129
0.01104791189
0.01102236848
0.01099584396
0.01096842615
0.01094019803
0.01091123796
0.01088161989
0.01085141355
0.01082068469
0.01078949524
0.01075790355
0.01072596451
0.01069372981
0.01066124804
0.01062856487
0.01059572322
0.01056276342
0.01052972334
0.01049663855
0.01046354242
0.0104304663
0.01039743958
0.01036448984
0.01033164298
0.01029892326
0.01026635346
0.01023395496
0.01020174786
0.01016975099
0.01013798196
0.01010645732
0.01007519259
0.01004420233
0.01001350021
0.009983099082
0.009953011005
0.009923247328
0.009893818715
0.009864735197
0.009836006186
0.009807640498
0.009779646305
0.009752030996
0.009724799569
0.009697946652
0.009671468007
0.00964535969
0.009619617974
0.009594239426
0.00956922089
0.009544559461
0.009520252501
0.009496297621
0.009472692551
0.009449435028
0.009426522772
0.009403953502
0.009381724923
0.009359834717
0.009338280525
0.009317059936
0.009296170482
0.009275609627
0.009255374766
0.00923546322
0.009215872238
0.00919659899
0.009177640576
0.009158994018
0.009140656261
0.009122624175
0.009104894561
0.009087464153
0.009070329629
0.009053487603
0.009036934635
0.009020667227
0.009004681829
0.00898897484
0.008973542617
0.008958381471
0.008943487673
0.008928857455
0.008914487021
0.008900372538
0.008886510148
0.00887289597
0.008859526102
0.008846396626
0.008833503609
0.008820843106
0.008808411167
0.008796203838
0.008784217162
0.008772447185
0.008760889954
0.008749541533
0.008738397996
0.008727455415
0.008716709879
0.00870615749
0.00869579437
0.008685616658
0.008675620514
0.008665802128
0.008656157712
0.008646683509
0.008637375793
0.008628230872
0.008619245086
0.008610414814
0.008601736471
0.008593206513
0.008584821438
0.008576577783
0.008568472133
0.008560501115
0.008552661403
0.00854494972
0.008537362834
0.008529897566
0.008522550784
0.008515319407
0.008508200407
0.008501190807
0.008494287681
0.00848748816
0.008480789424
0.008474188709
0.008467683308
0.008461270566
0.008454947883
0.008448712715
0.008442562574
0.008436495025
0.008430507691
0.008424598247
0.008418764426
0.008413004015
0.008407314855
0.00840169484
0.008396141921
0.008390654098
0.008385229428
0.008379866016
0.008374562021
0.008369315654
0.008364125175
0.008358988895
0.008353905171
0.008348872412
0.008343889074
0.008338953658
0.008334064713
0.008329220834
0.008324420659
0.008319662871
0.008314946196
0.008310269402
0.0083056313
0.008301030739
0.008296466607
0.008291937832
0.00828744338
0.008282982251
0.008278553485
0.008274156154
0.008269789365
0.008265452259
0.008261144008
0.008256863819
0.008252610924
0.008248384591
0.008244184113
0.008240008811
0.008235858037
0.008231731166
0.0082276276
0.008223546764
0.008219488111
0.008215451114
0.008211435269
0.008207440094
0.008203465129
0.008199509932
0.008195574084
0.00819165718
0.008187758838
0.008183878691
0.008180016389
0.008176171598
0.008172344001
0.008168533293
0.008164739187
0.008160961405
0.008157199687
0.008153453782
0.008149723453
0.008146008472
0.008142308626
0.008138623708
0.008134953525
0.008131297892
0.008127656631
0.008124029578
0.008120416573
0.008116817465
0.008113232111
0.008109660376
0.00810610213
0.008102557252
0.008099025623
0.008095507135
0.008092001683
0.008088509168
0.008085029493
0.008081562572
0.008078108318
0.00807466665
0.008071237491
0.008067820769
0.008064416412
0.008061024356
0.008057644534
0.008054276889
0.00805092136
0.008047577892
0.008044246433
0.008040926929
0.008037619333
0.008034323596
0.008031039673
0.00802776752
0.008024507094
0.008021258353
0.008018021258
0.008014795769
0.008011581848
0.008008379459
0.008005188566
0.008002009132
0.007998841125
0.007995684508
0.007992539248
0.00798940531
0.007986282663
0.007983171272
0.007980071105
0.007976982128
0.007973904308
0.007970837614
0.007967782013
0.007964737472
0.007961703958
0.007958681439
0.007955669883
0.007952669257
0.007949679528
0.007946700663
0.00794373263
0.007940775394
0.007937828924
0.007934893184
0.007931968143
0.007929053764
0.007926150015
0.007923256861
0.007920374268
0.0079175022
0.007914640622
0.007911789499
0.007908948796
0.007906118476
0.007903298503
0.007900488842
0.007897689454
0.007894900305
0.007892121355
0.007889352569
0.007886593908
0.007883845336
0.007881106813
0.007878378301
0.007875659764
0.00787295116
0.007870252453
0.007867563603
0.00786488457
0.007862215315
0.007859555798
0.007856905979
0.007854265819
0.007851635277
0.007849014312
0.007846402884
0.007843800953
0.007841208478
0.007838625417
0.007836051731
0.007833487377
0.007830932316
0.007828386506
0.007825849906
0.007823322475
0.007820804172
0.007818294955
0.007815794784
0.007813303618
0.007810821415
0.007808348134
0.007805883734
0.007803428174
0.007800981413
0.007798543409
0.007796114121
0.007793693509
0.007791281531
0.007788878146
0.007786483314
0.007784096994
0.007781719146
0.007779349728
0.007776988701
0.007774636024
0.007772291658
0.007769955561
0.007767627695
0.007765308019
0.007762996494
0.00776069308
0.007758397737
0.007756110426
0.007753831109
0.007751559745
0.007749296295
0.007747040722
0.007744792986
0.007742553049
0.007740320872
0.007738096417
0.007735879647
0.007733670524
0.007731469009
0.007729275066
0.007727088658
0.007724909746
0.007722738294
0.007720574266
0.007718417623
0.00771626833
0.00771412635
0.007711991647
0.007709864185
0.007707743927
0.007705630838
0.007703524881
0.007701426023
0.007699334227
0.007697249457
0.00769517168
0.00769310086
0.007691036963
0.007688979954
0.007686929799
0.007684886463
0.007682849913
0.007680820116
0.007678797037
0.007676780643
0.007674770901
0.007672767779
0.007670771243
0.007668781261
0.0076667978
0.007664820829
0.007662850315
0.007660886226
0.007658928531
0.007656977199
0.007655032197
0.007653093496
0.007651161064
0.00764923487
0.007647314885
0.007645401077
0.007643493417
0.007641591874
0.007639696419
0.007637807023
0.007635923655
0.007634046287
0.00763217489
0.007630309435
0.007628449893
0.007626596236
0.007624748435
0.007622906463
0.007621070292
0.007619239893
0.007617415239
0.007615596302
0.007613783056
0.007611975473
0.007610173526
0.007608377189
0.007606586434
0.007604801235
0.007603021565
0.0076012474
0.007599478712
0.007597715477
0.007595957668
0.00759420526
0.007592458228
0.007590716546
0.007588980191
0.007587249137
0.007585523361
0.007583802837
0.007582087541
0.007580377451
0.007578672541
0.007576972788
0.007575278169
0.007573588661
0.00757190424
0.007570224884
0.007568550569
0.007566881273
0.007565216974
0.007563557649
0.007561903275
0.007560253832
0.007558609296
0.007556969647
0.007555334862
0.00755370492
0.007552079801
0.007550459482
0.007548843944
0.007547233165
0.007545627124
0.007544025803
0.007542429179
0.007540837235
0.007539249948
0.007537667301
0.007536089273
0.007534515845
0.007532946998
0.007531382714
0.007529822972
0.007528267755
0.007526717044
0.007525170821
0.007523629068
0.007522091766
0.007520558899
0.007519030447
0.007517506395
0.007515986724
0.007514471419
0.007512960461
0.007511453835
0.007509951523
0.00750845351
0.00750695978
0.007505470316
0.007503985103
0.007502504125
0.007501027367
0.007499554814
0.00749808645
0.007496622261
0.007495162233
0.00749370635
0.007492254601
0.007490806969
0.007489363443
0.007487924008
0.007486488652
0.007485057361
0.007483630125
0.00748220693
0.007480787765
0.007479372617
0.007477961477
0.007476554333
0.007475151175
0.007473751992
0.007472356775
0.007470965513
0.007469578199
0.007468194824
0.007466815378
0.007465439855
0.007464068248
0.007462700548
0.00746133675
0.007459976849
0.007458620838
0.007457268714
0.007455920472
0.007454576109
0.007453235622
0.007451899008
0.007450566267
0.007449237398
0.0074479124
0.007446591275
0.007445274024
0.00744396065
0.007442651156
0.007441345546
0.007440043827
0.007438746004
0.007437452085
0.007436162079
0.007434875995
0.007433593846
0.007432315642
0.007431041399
0.007429771131
0.007428504856
0.007427242592
0.007425984358
0.007424730177
0.007423480073
0.007422234071
0.007420992199
0.007419754486
0.007418520965
0.00741729167
0.007416066637
0.007414845907
0.007413629521
0.007412417523
0.007411209963
0.00741000689
0.007408808359
0.007407614429
0.007406425159
0.007405240617
0.007404060869
0.007402885991
0.00740171606
0.007400551158
0.007399391372
0.007398236795
0.007397087525
0.007395943665
0.007394805325
0.007393672619
0.007392545671
0.007391424609
0.00739030957
0.007389200697
0.007388098144
0.007387002069
0.007385912643
0.007384830044
0.007383754461
0.007382686093
0.007381625149
0.00738057185
0.00737952643
0.007378489133
0.007377460218
0.007376439959
0.007375428641
0.007374426568
0.007373434058
0.007372451447
0.00737147909
0.007370517359
0.007369566647
0.007368627369
0.00736769996
0.00736678488
0.007365882613
0.007364993669
0.007364118587
0.007363257931
0.007362412299
0.007361582319
0.007360768655
0.007359972004
0.007359193102
0.007358432726
0.007357691695
0.00735697087
0.007356271163
0.007355593535
0.007354939
0.00735430863
0.007353703559
0.007353124979
0.007352574167
0.007352052517
0.007351561489
0.007351101315
0.007350673025
0.007350278629
0.007349920093
0.007349599416
0.007349318625
0.007349079791
0.007348885044
0.007348736598
0.007348636758
0.007348587941
0.007348592687
0.007348653669
0.007348773702
0.007348955754
0.007349202957
0.00734951862
0.007349906243
0.007350369527
0.007350912393
0.007351538992
0.007352253728
0.007353061273
0.007353966583
0.007354974927
0.007356091903
0.007357323467
0.007358675955
0.007360156119
0.007361771156
0.007363528739
0.007365437064
0.007367504886
0.007369741566
0.007372157126
0.007374762304
0.007377568618
0.007380588433
0.007383835046
0.007387322769
0.007391067027
0.007395084473
0.007399393109
0.00740401243
0.007408963583
0.00741426955
0.007419955361
0.00742604833
0.007432578335
0.007439578143
0.00744708378
0.007455134975
0.007463775668
0.007473054628
0.007483026167
0.007493750995
0.007505297235
0.007517741619
0.00753117086
0.007545683178
0.007561389776
0.007578415761
0.007596898967
0.007616980903
0.007638787915
0.007662936377
0.007769672231
0.007746412411
0.007717573256
0.007684523671
0.00764802664
0.0076085988
0.007566622331
0.007522411196
0.007476232764
0.00742831996
0.007378882395
0.007328111929
0.007276183003
0.007223255391
0.007169481569
0.007115005515
0.007059964082
0.007004487526
0.006948699422
0.006892716156
0.006836646531
0.00678059276
0.006724651405
0.006668913446
0.006613464341
0.006558384455
0.006503749479
0.006449630396
0.006396093073
0.006343198083
0.006291001257
0.006239554261
0.006188904755
0.006139096429
0.006090169181
0.006042159417
0.005995100302
0.005949021964
0.005903951346
0.005859912196
0.005816925617
0.005775010332
0.005734182822
0.00569445746
0.005655846594
0.00561836063
0.005582008135
0.005546796226
0.005512730879
0.005479816821
0.005448057451
0.005417454985
0.005388010609
0.005359724595
0.005332596392
0.005306624729
0.005281807689
0.005258142782
0.005235627001
0.005214256807
0.005194028314
0.005174937517
0.005156980226
0.005140152015
0.005124448297
0.005109864359
0.005096395393
0.005084036536
0.005072782888
0.005062629546
0.005053571624
0.005045604267
0.005038722662
0.005032922046
0.005028197732
0.005024545251
0.005021960341
0.005020438769
0.005019976345
0.005020569005
0.005022212826
0.005024904025
0.005028638975
0.005033414207
0.005039226419
0.005046072498
0.005053949568
0.005062855133
0.005072787372
0.005083745217
0.005095723138
0.00510854256
0.005121237148
0.005133850039
0.005146415196
0.005158962841
0.005171519562
0.00518410851
0.005196749362
0.005209456699
0.005222239935
0.005235107053
0.005248064395
0.005261116847
0.005274267992
0.005287520251
0.005300875021
0.005314332815
0.005327893354
0.005341555643
0.005355318054
0.005369178398
0.005383134005
0.005397181778
0.005411318246
0.005425539617
0.005439841827
0.005454220572
0.005468671342
0.005483189396
0.005497769827
0.005512407602
0.005527097574
0.005541834504
0.005556613083
0.005571427956
0.005586273729
0.005601144987
0.005616036312
0.00563094229
0.005645857525
0.005660776641
0.005675694301
0.005690605207
0.005705504119
0.00572038586
0.005735245321
0.005750077465
0.005764877333
0.00577964006
0.005794360873
0.005809035098
0.00582365816
0.005838225587
0.005852733014
0.005867176207
0.005881551056
0.005895853556
0.005910079811
0.005924226049
0.005938288623
0.00595226401
0.005966148814
0.005979939765
0.005993633722
0.006007227675
0.006020718736
0.006034104152
0.006047381296
0.006060547671
0.006073600904
0.006086538755
0.006099359105
0.006112059966
0.006124639469
0.006137095872
0.006149427553
0.006161633011
0.006173710865
0.006185659847
0.006197478805
0.006209166698
0.006220722596
0.006232145676
0.006243435218
0.006254590606
0.006265611328
0.006276496967
0.006287247202
0.006297861807
0.006308340644
0.006318683664
0.0063288909
0.006338962471
0.006348898574
0.006358699483
0.006368365548
0.006377897188
0.006387294893
0.006396559215
0.006405690771
0.006414690238
0.00642355835
0.006432295896
0.006440903716
0.006449382699
0.006457733782
0.006465957947
0.006474056213
0.006482029642
0.00648987933
0.006497606409
0.006505212042
0.006512697421
0.006520063769
0.006527312334
0.006534444388
0.006541461225
0.006548364154
0.006555154506
0.006561833622
0.006568402859
0.006574863586
0.006581217184
0.006587465039
0.006593608546
0.006599649108
0.006605588129
0.006611427018
0.006617167183
0.006622810036
0.006628356986
0.00663380944
0.006639168802
0.006644436473
0.006649613847
0.006654702315
0.006659703257
0.006664618048
0.006669448053
0.006674194631
0.006678859126
0.006683442874
0.0066879472
0.006692373418
0.006696722827
0.006700996715
0.006705196356
0.006709323012
0.006713377929
0.00671736234
0.006721277461
0.006725124496
0.006728904629
0.006732619033
0.006736268863
0.006739855256
0.006743379336
0.006746842209
0.006750244965
0.00675358868
0.00675687441
0.006760103198
0.006763276066
0.006766394023
0.006769458061
0.006772469155
0.006775428264
0.00677833633
0.006781194279
0.006784003022
0.006786763451
0.006789476445
0.006792142867
0.006794763563
0.006797339365
0.006799871089
0.006802359536
0.00680480549
0.006807209722
0.006809572988
0.006811896029
0.006814179571
0.006816424327
0.006818630994
0.006820800258
0.006822932788
0.006825029242
0.006827090264
0.006829116484
0.00683110852
0.006833066978
0.006834992449
0.006836885516
0.006838746745
0.006840576696
0.006842375912
0.00684414493
0.006845884273
0.006847594454
0.006849275973
0.00685092932
0.006852554976
0.00685415341
0.006855725081
0.00685727044
0.006858789926
0.006860283971
0.006861752997
0.006863197416
0.006864617633
0.006866014043
0.006867387034
0.006868736985
0.006870064266
0.006871369242
0.006872652267
0.00687391369
0.006875153851
0.006876373084
0.006877571716
0.006878750066
0.006879908447
0.006881047167
0.006882166525
0.006883266815
0.006884348326
0.006885411339
0.006886456132
0.006887482974
0.006888492131
0.006889483863
0.006890458425
0.006891416066
0.006892357031
0.00689328156
0.006894189888
0.006895082245
0.006895958858
0.006896819948
0.006897665733
0.006898496426
0.006899312237
0.006900113371
0.006900900029
0.006901672409
0.006902430705
0.006903175107
0.006903905801
0.00690462297
0.006905326794
0.006906017451
0.006906695113
0.006907359951
0.006908012133
0.006908651823
0.006909279183
0.006909894371
0.006910497543
0.006911088854
0.006911668454
0.006912236491
0.006912793112
0.00691333846
0.006913872676
0.0069143959
0.006914908268
0.006915409915
0.006915900973
0.006916381572
0.00691685184
0.006917311902
0.006917761884
0.006918201908
0.006918632092
0.006919052557
0.006919463419
0.006919864792
0.006920256792
0.006920639529
0.006921013114
0.006921377655
0.00692173326
0.006922080033
0.00692241808
0.006922747501
0.006923068399
0.006923380872
0.006923685019
0.006923980937
0.006924268722
0.006924548466
0.006924820264
0.006925084206
0.006925340384
0.006925588885
0.006925829799
0.006926063212
0.006926289209
0.006926507877
0.006926719297
0.006926923554
0.006927120729
0.006927310901
0.00692749415
0.006927670554
0.00692784019
0.006928003134
0.006928159462
0.006928309247
0.006928452564
0.006928589484
0.006928720079
0.00692884442
0.006928962576
0.006929074617
0.006929180609
0.006929280622
0.006929374719
0.006929462968
0.006929545433
0.006929622178
0.006929693266
0.00692975876
0.006929818722
0.006929873212
0.006929922291
0.006929966018
0.006930004453
0.006930037654
0.006930065678
0.006930088582
0.006930106423
0.006930119256
0.006930127136
0.006930130118
0.006930128255
0.006930121602
0.00693011021
0.006930094131
0.006930073417
0.006930048119
0.006930018287
0.006929983972
0.006929945222
0.006929902086
0.006929854613
0.00692980285
0.006929746845
0.006929686644
0.006929622294
0.006929553841
0.00692948133
0.006929404806
0.006929324313
0.006929239896
0.006929151598
0.006929059463
0.006928963532
0.006928863848
0.006928760453
0.006928653388
0.006928542693
0.00692842841
0.006928310578
0.006928189237
0.006928064427
0.006927936186
0.006927804553
0.006927669567
0.006927531264
0.006927389683
0.006927244861
0.006927096834
0.006926945639
0.006926791313
0.006926633891
0.006926473408
0.0069263099
0.006926143401
0.006925973946
0.006925801569
0.006925626304
0.006925448184
0.006925267243
0.006925083513
0.006924897026
0.006924707816
0.006924515914
0.006924321351
0.00692412416
0.006923924369
0.006923722012
0.006923517117
0.006923309715
0.006923099836
0.006922887509
0.006922672763
0.006922455629
0.006922236134
0.006922014307
0.006921790177
0.006921563771
0.006921335119
0.006921104246
0.006920871181
0.00692063595
0.006920398581
0.006920159099
0.006919917531
0.006919673904
0.006919428242
0.006919180572
0.006918930919
0.006918679308
0.006918425763
0.00691817031
0.006917912973
0.006917653777
0.006917392744
0.0069171299
0.006916865269
0.006916598872
0.006916330735
0.006916060878
0.006915789327
0.006915516101
0.006915241225
0.00691496472
0.006914686608
0.00691440691
0.006914125649
0.006913842845
0.00691355852
0.006913272695
0.00691298539
0.006912696627
0.006912406426
0.006912114807
0.006911821791
0.006911527398
0.006911231647
0.006910934559
0.006910636154
0.00691033645
0.006910035467
0.006909733225
0.006909429742
0.006909125038
0.006908819131
0.00690851204
0.006908203784
0.006907894381
0.00690758385
0.006907272209
0.006906959478
0.006906645673
0.006906330814
0.006906014918
0.006905698004
0.00690538009
0.006905061193
0.006904741333
0.006904420526
0.006904098791
0.006903776147
0.00690345261
0.0069031282
0.006902802934
0.00690247683
0.006902149907
0.006901822184
0.006901493677
0.006901164407
0.006900834391
0.006900503648
0.006900172198
0.006899840059
0.00689950725
0.006899173791
0.006898839702
0.006898505001
0.00689816971
0.006897833849
0.006897497437
0.006897160497
0.006896823049
0.006896485114
0.006896146716
0.006895807876
0.006895468616
0.006895128962
0.006894788935
0.00689444856
0.006894107862
0.006893766867
0.006893425601
0.00689308409
0.006892742362
0.006892400446
0.006892058369
0.006891716162
0.006891373855
0.006891031481
0.006890689071
0.00689034666
0.006890004282
0.006889661974
0.006889319772
0.006888977716
0.006888635844
0.006888294199
0.006887952824
0.006887611762
0.00688727106
0.006886930767
0.006886590932
0.006886251607
0.006885912847
0.006885574708
0.006885237249
0.006884900533
0.006884564624
0.006884229589
0.006883895496
0.00688356242
0.006883230435
0.00688289962
0.006882570057
0.006882241834
0.00688191504
0.006881589771
0.006881266126
0.006880944208
0.006880624128
0.006880305997
0.006879989938
0.006879676073
0.006879364536
0.006879055462
0.006878748997
0.006878445292
0.006878144506
0.006877846804
0.006877552362
0.006877261362
0.006876973996
0.006876690466
0.006876410981
0.006876135764
0.006875865043
0.006875599059
0.006875338058
0.006875082276
0.006874831922
0.00687458714
0.006874347898
0.006874114049
0.006873884101
0.006873654746
0.006873418379
0.006873169628
0.006872907241
0.006872629746
0.006872335532
0.006872023044
0.006871690844
0.006871337576
0.006870961903
0.006870562477
0.006870137931
0.006869686875
0.006869207887
0.006868699499
0.006868160193
0.006867588385
0.006866982415
0.006866340542
0.006865660932
0.00686494165
0.006864180644
0.006863375739
0.006862524618
0.006861624811
0.006860673678
0.006859668394
0.006858605926
0.006857483015
0.006856296151
0.006855041551
0.006853715123
0.006852312438
0.006850828691
0.006849258658
0.006847596647
0.006845836443
0.006843971241
0.006841993573
0.006839895218
0.006837667103
0.006835299176
0.006832780264
0.006830097901
0.006827238115
0.006824185175
0.006820921273
0.006817426135
0.006813676523
0.006809645605
0.006805302135
0.006800609372
0.00679552362
0.006789992224
0.006783950749
0.006777318879
0.006769994282
0.006761843096
0.006752684584
0.006742265323
0.006730213792
0.00671595665
0.00669855605
0.006676387179
0.006643494866
0.00777065265
0.007754074725
0.007734033934
0.007710947786
0.007685173781
0.007656999603
0.007626659807
0.007594342626
0.007560215176
0.007524435379
0.007487143599
0.007448471813
0.007408544718
0.007367476901
0.007325376705
0.007282345515
0.007238480773
0.007193876001
0.007148620276
0.007102798903
0.007056493807
0.007009783148
0.006962741295
0.006915439021
0.006867943731
0.006820319778
0.006772628629
0.006724928758
0.006677275442
0.006629720683
0.006582313562
0.006535100579
0.006488125648
0.006441430155
0.006395052957
0.006349030592
0.006303397526
0.006258186192
0.006213426823
0.006169147185
0.006125372916
0.006082127857
0.006039433946
0.005997311461
0.005955779178
0.005914854355
0.005874552714
0.005834887997
0.005795872148
0.005757515964
0.005719829213
0.005682820747
0.005646498512
0.005610869516
0.005575939887
0.005541714917
0.005508199119
0.005475396274
0.005443309489
0.005411941304
0.005381293535
0.005351367375
0.005322163588
0.005293682483
0.00526592394
0.005238887452
0.005212572158
0.00518697688
0.00516210015
0.005137940245
0.00511449521
0.005091762888
0.00506974094
0.00504842688
0.005027818092
0.005007911869
0.004988705414
0.004970195853
0.004952380248
0.004935255627
0.004918819011
0.004903067486
0.004887998108
0.00487360794
0.004859894064
0.00484685361
0.004834483776
0.004822781825
0.004811745049
0.004801370591
0.004791654781
0.004782589064
0.004774144282
0.004766296141
0.004759023387
0.004752307468
0.004746132298
0.004740483684
0.004735346472
0.004730630322
0.004726198076
0.004722048536
0.004718179675
0.004714589436
0.004711275629
0.004708235896
0.004705467712
0.004702968396
0.0047007351
0.004698764831
0.004697054457
0.004695600722
0.004694400257
0.004693449586
0.004692745131
0.00469228323
0.004692060135
0.004692072023
0.004692315023
0.004692785304
0.004693478824
0.004694391495
0.004695519191
0.004696857753
0.004698402996
0.004700150709
0.004702096663
0.004704236612
0.004706566301
0.004709081472
0.004711777859
0.004714651197
0.00471769722
0.00472091167
0.004724290304
0.004727828902
0.004731523262
0.004735369199
0.004739362552
0.004743499182
0.004747774976
0.004752185848
0.004756727735
0.004761396606
0.004766188465
0.004771099357
0.004776125368
0.00478126262
0.004786507263
0.00479185549
0.00479730353
0.004802847662
0.004808484208
0.004814209539
0.004820020076
0.004825912288
0.004831882696
0.00483792787
0.004844044437
0.004850229073
0.004856478511
0.004862789535
0.004869158988
0.004875583767
0.004882060823
0.004888587166
0.004895159865
0.004901776043
0.004908432884
0.004915127627
0.004921857571
0.00492862007
0.004935412539
0.004942232446
0.00494907732
0.004955944744
0.004962832364
0.004969737883
0.004976659061
0.004983593718
0.004990539727
0.004997495019
0.005004457581
0.005011425458
0.005018396749
0.00502536961
0.005032342252
0.005039312942
0.005046279997
0.00505324179
0.005060196744
0.005067143337
0.005074080094
0.005081005594
0.005087918464
0.005094817381
0.005101701069
0.005108568301
0.005115417895
0.005122248714
0.005129059667
0.005135849706
0.005142617827
0.005149363068
0.005156084511
0.00516278128
0.005169452539
0.005176097492
0.005182715378
0.005189305475
0.005195867093
0.005202399583
0.005208902327
0.005215374744
0.005221816282
0.005228226426
0.005234604689
0.005240950615
0.00524726378
0.005253543785
0.005259790263
0.005266002871
0.005272181294
0.005278325242
0.00528443445
0.005290508678
0.005296547706
0.005302551339
0.005308519402
0.005314451742
0.005320348227
0.00532620874
0.005332033187
0.00533782149
0.005343573588
0.005349289437
0.005354969009
0.005360612291
0.005366219286
0.005371790007
0.005377324486
0.005382822763
0.005388284892
0.005393710937
0.005399100975
0.005404455092
0.005409773383
0.005415055952
0.005420302914
0.005425514391
0.005430690516
0.005435831427
0.005440937268
0.005446008192
0.005451044356
0.005456045926
0.005461013069
0.005465945962
0.005470844784
0.00547570972
0.005480540956
0.005485338686
0.005490103104
0.005494834411
0.005499532809
0.005504198503
0.005508831701
0.005513432612
0.005518001448
0.005522538422
0.00552704375
0.005531517646
0.005535960329
0.005540372014
0.005544752922
0.005549103271
0.00555342328
0.005557713168
0.005561973155
0.00556620346
0.005570404302
0.005574575899
0.005578718469
0.00558283223
0.005586917398
0.005590974189
0.00559500282
0.005599003506
0.005602976463
0.005606921904
0.00561084004
0.005614731081
0.005618595237
0.005622432714
0.005626243717
0.005630028451
0.00563378712
0.005637519923
0.005641227061
0.005644908732
0.005648565133
0.005652196459
0.005655802904
0.005659384658
0.005662941914
0.005666474859
0.00566998368
0.005673468562
0.00567692969
0.005680367246
0.005683781409
0.005687172358
0.005690540272
0.005693885325
0.005697207691
0.005700507541
0.005703785048
0.00570704038
0.005710273703
0.005713485185
0.005716674988
0.005719843276
0.005722990209
0.005726115947
0.005729220647
0.005732304467
0.00573536756
0.00573841008
0.005741432179
0.005744434007
0.005747415714
0.005750377446
0.005753319351
0.005756241572
0.005759144255
0.00576202754
0.005764891568
0.005767736478
0.005770562407
0.005773369491
0.005776157865
0.005778927663
0.005781679018
0.005784412061
0.005787126921
0.005789823728
0.005792502609
0.00579516369
0.005797807097
0.005800432952
0.005803041381
0.005805632503
0.005808206442
0.005810763315
0.005813303243
0.005815826343
0.005818332731
0.005820822524
0.005823295837
0.005825752782
0.005828193472
0.005830618019
0.005833026533
0.005835419125
0.005837795901
0.005840156971
0.005842502441
0.005844832418
0.005847147007
0.005849446313
0.005851730439
0.005853999488
0.005856253561
0.005858492761
0.005860717188
0.00586292694
0.005865122117
0.005867302816
0.005869469134
0.005871621168
0.005873759014
0.005875882765
0.005877992516
0.00588008836
0.00588217039
0.005884238696
0.005886293371
0.005888334504
0.005890362185
0.005892376504
0.00589437755
0.00589636541
0.005898340171
0.005900301921
0.005902250745
0.005904186727
0.005906109953
0.005908020506
0.005909918468
0.005911803923
0.005913676953
0.00591553764
0.005917386063
0.005919222303
0.00592104644
0.005922858553
0.00592465872
0.005926447018
0.005928223526
0.005929988319
0.005931741475
0.005933483067
0.005935213172
0.005936931865
0.005938639218
0.005940335307
0.005942020203
0.005943693979
0.005945356709
0.005947008462
0.005948649311
0.005950279326
0.005951898577
0.005953507134
0.005955105067
0.005956692444
0.005958269333
0.005959835804
0.005961391922
0.005962937757
0.005964473373
0.005965998838
0.005967514218
0.005969019578
0.005970514982
0.005972000497
0.005973476185
0.005974942111
0.005976398339
0.005977844931
0.00597928195
0.005980709459
0.00598212752
0.005983536194
0.005984935543
0.005986325627
0.005987706509
0.005989078246
0.0059904409
0.005991794529
0.005993139192
0.005994474948
0.005995801855
0.005997119971
0.005998429353
0.005999730059
0.006001022145
0.006002305668
0.006003580684
0.006004847248
0.006006105416
0.006007355243
0.006008596784
0.006009830093
0.006011055225
0.006012272233
0.006013481171
0.006014682092
0.006015875049
0.006017060094
0.00601823728
0.006019406659
0.006020568282
0.0060217222
0.006022868465
0.006024007127
0.006025138237
0.006026261844
0.006027377998
0.00602848675
0.006029588147
0.006030682238
0.006031769072
0.006032848697
0.00603392116
0.006034986509
0.006036044792
0.006037096054
0.006038140343
0.006039177705
0.006040208186
0.006041231832
0.006042248689
0.006043258801
0.006044262213
0.006045258971
0.006046249118
0.006047232699
0.006048209757
0.006049180335
0.006050144477
0.006051102225
0.006052053622
0.00605299871
0.006053937532
0.006054870128
0.006055796539
0.006056716809
0.006057630976
0.006058539082
0.006059441167
0.006060337272
0.006061227436
0.006062111699
0.0060629901
0.006063862678
0.006064729472
0.006065590519
0.006066445857
0.006067295525
0.006068139561
0.006068978
0.00606981088
0.006070638237
0.006071460109
0.006072276531
0.006073087539
0.006073893168
0.006074693454
0.006075488432
0.006076278137