/*--------------------------------*- C++ -*----------------------------------*\
| =========                 |                                                 |
| \\      /  F ield         | OpenFOAM: The Open Source CFD Toolbox           |
|  \\    /   O peration     | Version:  2312                                  |
|   \\  /    A nd           | Website:  www.openfoam.com                      |
|    \\/     M anipulation  |                                                 |
\*---------------------------------------------------------------------------*/
FoamFile
{
    version     2.0;
    format      ascii;
    arch        "LSB;label=32;scalar=64";
    class       volScalarField;
    location    "459";
    object      nut;
}
// * * * * * * * * * * * * * * * * * * * * * * * * * * * * * * * * * * * * * //

dimensions      [0 2 -1 0 0 0 0];

internalField   nonuniform List<scalar> 
63546
(
1.401211423e-05
1.421945333e-05
1.441385747e-05
1.459652189e-05
1.476826564e-05
1.492973129e-05
1.508144263e-05
1.522385269e-05
1.535737287e-05
1.548238647e-05
1.559925533e-05
1.570832395e-05
1.580992244e-05
1.590436913e-05
1.599197235e-05
1.607303131e-05
1.61478366e-05
1.621667043e-05
1.627980674e-05
1.633751124e-05
1.639004143e-05
1.643764678e-05
1.648056873e-05
1.651904085e-05
1.655328879e-05
1.658353033e-05
1.660997546e-05
1.663282637e-05
1.665227746e-05
1.666851546e-05
1.668171952e-05
1.66920614e-05
1.669970566e-05
1.67048098e-05
1.670752443e-05
1.670799342e-05
1.670635413e-05
1.670273754e-05
1.669726851e-05
1.66900659e-05
1.668124284e-05
1.667090696e-05
1.665916057e-05
1.664610087e-05
1.663182013e-05
1.661640592e-05
1.659994127e-05
1.658250495e-05
1.656417156e-05
1.654501182e-05
1.652509265e-05
1.650447738e-05
1.648322591e-05
1.646139487e-05
1.643903782e-05
1.641620537e-05
1.639294531e-05
1.636930282e-05
1.634532056e-05
1.632103879e-05
1.629649556e-05
1.627172676e-05
1.624676628e-05
1.622164607e-05
1.619639633e-05
1.617104551e-05
1.614562051e-05
1.612014667e-05
1.609464794e-05
1.606914693e-05
1.604366497e-05
1.601822222e-05
1.599283771e-05
1.596752943e-05
1.59423144e-05
1.591720875e-05
1.589222769e-05
1.586738561e-05
1.584269613e-05
1.581817214e-05
1.579382587e-05
1.57696689e-05
1.574571223e-05
1.572196631e-05
1.569844107e-05
1.567514596e-05
1.565208995e-05
1.562928159e-05
1.560672897e-05
1.558443971e-05
1.556242085e-05
1.554067752e-05
1.551920659e-05
1.549800579e-05
1.547707307e-05
1.545640652e-05
1.543600445e-05
1.541586537e-05
1.539598797e-05
1.537637113e-05
1.535701391e-05
1.533791547e-05
1.531907494e-05
1.530049142e-05
1.528216399e-05
1.526409171e-05
1.52462736e-05
1.522870862e-05
1.521139569e-05
1.519433366e-05
1.517752128e-05
1.516095726e-05
1.514464022e-05
1.51285687e-05
1.511274116e-05
1.509715597e-05
1.508181144e-05
1.506670579e-05
1.505183715e-05
1.503720358e-05
1.502280308e-05
1.500863356e-05
1.499469287e-05
1.498097881e-05
1.496748909e-05
1.495422137e-05
1.494117325e-05
1.492834228e-05
1.491572594e-05
1.490332168e-05
1.489112688e-05
1.487913889e-05
1.4867355e-05
1.485577249e-05
1.484438857e-05
1.483320043e-05
1.482220524e-05
1.481140013e-05
1.48007822e-05
1.479034854e-05
1.478009623e-05
1.47700223e-05
1.47601238e-05
1.475039776e-05
1.47408412e-05
1.473145114e-05
1.472222459e-05
1.471315855e-05
1.470425002e-05
1.469549603e-05
1.468689358e-05
1.467843969e-05
1.467013138e-05
1.466196571e-05
1.465393972e-05
1.464605048e-05
1.463829509e-05
1.463067065e-05
1.462317429e-05
1.461580317e-05
1.460855445e-05
1.460142534e-05
1.459441308e-05
1.458751493e-05
1.458072816e-05
1.457405011e-05
1.456747814e-05
1.456100962e-05
1.455464198e-05
1.454837269e-05
1.454219924e-05
1.453611917e-05
1.453013004e-05
1.452422947e-05
1.451841512e-05
1.451268467e-05
1.450703586e-05
1.450146647e-05
1.44959743e-05
1.449055723e-05
1.448521316e-05
1.447994003e-05
1.447473583e-05
1.44695986e-05
1.446452641e-05
1.445951738e-05
1.445456969e-05
1.444968152e-05
1.444485115e-05
1.444007685e-05
1.443535697e-05
1.443068989e-05
1.442607403e-05
1.442150785e-05
1.441698986e-05
1.441251861e-05
1.440809267e-05
1.440371069e-05
1.439937132e-05
1.439507328e-05
1.43908153e-05
1.438659617e-05
1.438241472e-05
1.437826979e-05
1.437416028e-05
1.437008512e-05
1.436604328e-05
1.436203376e-05
1.435805558e-05
1.435410781e-05
1.435018955e-05
1.434629993e-05
1.434243811e-05
1.433860327e-05
1.433479464e-05
1.433101145e-05
1.4327253e-05
1.432351857e-05
1.431980751e-05
1.431611915e-05
1.431245289e-05
1.430880813e-05
1.430518429e-05
1.430158083e-05
1.429799723e-05
1.429443296e-05
1.429088756e-05
1.428736056e-05
1.428385152e-05
1.428036e-05
1.427688561e-05
1.427342795e-05
1.426998666e-05
1.426656138e-05
1.426315177e-05
1.425975751e-05
1.425637829e-05
1.425301381e-05
1.42496638e-05
1.424632799e-05
1.424300612e-05
1.423969795e-05
1.423640325e-05
1.423312181e-05
1.42298534e-05
1.422659784e-05
1.422335494e-05
1.422012451e-05
1.421690639e-05
1.421370041e-05
1.421050642e-05
1.420732427e-05
1.420415383e-05
1.420099497e-05
1.419784756e-05
1.419471148e-05
1.419158663e-05
1.418847289e-05
1.418537017e-05
1.418227837e-05
1.417919741e-05
1.41761272e-05
1.417306765e-05
1.41700187e-05
1.416698027e-05
1.416395229e-05
1.41609347e-05
1.415792744e-05
1.415493045e-05
1.415194368e-05
1.414896707e-05
1.414600057e-05
1.414304414e-05
1.414009774e-05
1.413716131e-05
1.413423483e-05
1.413131824e-05
1.412841152e-05
1.412551462e-05
1.412262752e-05
1.411975017e-05
1.411688256e-05
1.411402464e-05
1.41111764e-05
1.410833779e-05
1.410550879e-05
1.410268939e-05
1.409987954e-05
1.409707922e-05
1.409428842e-05
1.40915071e-05
1.408873524e-05
1.408597282e-05
1.408321981e-05
1.408047619e-05
1.407774193e-05
1.407501702e-05
1.407230142e-05
1.406959512e-05
1.406689809e-05
1.40642103e-05
1.406153174e-05
1.405886239e-05
1.405620221e-05
1.405355118e-05
1.405090928e-05
1.404827649e-05
1.404565278e-05
1.404303813e-05
1.404043252e-05
1.403783591e-05
1.403524828e-05
1.403266962e-05
1.403009989e-05
1.402753906e-05
1.402498712e-05
1.402244404e-05
1.401990978e-05
1.401738433e-05
1.401486766e-05
1.401235973e-05
1.400986053e-05
1.400737002e-05
1.400488818e-05
1.400241497e-05
1.399995038e-05
1.399749437e-05
1.399504691e-05
1.399260798e-05
1.399017754e-05
1.398775557e-05
1.398534203e-05
1.39829369e-05
1.398054014e-05
1.397815173e-05
1.397577163e-05
1.397339982e-05
1.397103626e-05
1.396868092e-05
1.396633377e-05
1.396399478e-05
1.396166392e-05
1.395934115e-05
1.395702644e-05
1.395471976e-05
1.395242108e-05
1.395013037e-05
1.394784759e-05
1.394557271e-05
1.394330569e-05
1.394104651e-05
1.393879514e-05
1.393655153e-05
1.393431566e-05
1.393208749e-05
1.392986699e-05
1.392765413e-05
1.392544887e-05
1.392325119e-05
1.392106104e-05
1.39188784e-05
1.391670323e-05
1.39145355e-05
1.391237517e-05
1.391022221e-05
1.39080766e-05
1.390593829e-05
1.390380725e-05
1.390168345e-05
1.389956687e-05
1.389745745e-05
1.389535518e-05
1.389326002e-05
1.389117193e-05
1.388909089e-05
1.388701686e-05
1.388494981e-05
1.38828897e-05
1.388083651e-05
1.38787902e-05
1.387675075e-05
1.387471811e-05
1.387269226e-05
1.387067316e-05
1.386866079e-05
1.386665511e-05
1.386465609e-05
1.386266369e-05
1.38606779e-05
1.385869867e-05
1.385672598e-05
1.385475979e-05
1.385280008e-05
1.385084681e-05
1.384889996e-05
1.384695949e-05
1.384502537e-05
1.384309757e-05
1.384117606e-05
1.383926082e-05
1.383735181e-05
1.3835449e-05
1.383355237e-05
1.383166188e-05
1.38297775e-05
1.382789921e-05
1.382602698e-05
1.382416077e-05
1.382230056e-05
1.382044632e-05
1.381859802e-05
1.381675563e-05
1.381491913e-05
1.381308848e-05
1.381126366e-05
1.380944464e-05
1.380763139e-05
1.380582389e-05
1.380402211e-05
1.380222601e-05
1.380043558e-05
1.379865079e-05
1.379687161e-05
1.3795098e-05
1.379332996e-05
1.379156744e-05
1.378981043e-05
1.37880589e-05
1.378631282e-05
1.378457216e-05
1.378283691e-05
1.378110703e-05
1.37793825e-05
1.377766329e-05
1.377594939e-05
1.377424076e-05
1.377253738e-05
1.377083922e-05
1.376914627e-05
1.376745849e-05
1.376577587e-05
1.376409838e-05
1.376242599e-05
1.376075868e-05
1.375909643e-05
1.375743922e-05
1.375578701e-05
1.37541398e-05
1.375249755e-05
1.375086024e-05
1.374922785e-05
1.374760036e-05
1.374597775e-05
1.374435998e-05
1.374274705e-05
1.374113892e-05
1.373953558e-05
1.3737937e-05
1.373634317e-05
1.373475405e-05
1.373316964e-05
1.37315899e-05
1.373001482e-05
1.372844438e-05
1.372687856e-05
1.372531733e-05
1.372376068e-05
1.372220858e-05
1.372066101e-05
1.371911796e-05
1.371757941e-05
1.371604532e-05
1.37145157e-05
1.371299051e-05
1.371146974e-05
1.370995337e-05
1.370844137e-05
1.370693373e-05
1.370543044e-05
1.370393147e-05
1.37024368e-05
1.370094641e-05
1.369946029e-05
1.369797843e-05
1.369650079e-05
1.369502736e-05
1.369355813e-05
1.369209308e-05
1.369063218e-05
1.368917543e-05
1.368772281e-05
1.368627429e-05
1.368482987e-05
1.368338952e-05
1.368195322e-05
1.368052098e-05
1.367909275e-05
1.367766854e-05
1.367624832e-05
1.367483208e-05
1.36734198e-05
1.367201146e-05
1.367060706e-05
1.366920658e-05
1.366780999e-05
1.366641729e-05
1.366502847e-05
1.36636435e-05
1.366226237e-05
1.366088507e-05
1.365951158e-05
1.365814189e-05
1.365677599e-05
1.365541386e-05
1.365405549e-05
1.365270087e-05
1.365134997e-05
1.36500028e-05
1.364865933e-05
1.364731956e-05
1.364598346e-05
1.364465104e-05
1.364332227e-05
1.364199715e-05
1.364067566e-05
1.363935779e-05
1.363804353e-05
1.363673287e-05
1.36354258e-05
1.36341223e-05
1.363282238e-05
1.363152601e-05
1.363023319e-05
1.362894391e-05
1.362765815e-05
1.362637592e-05
1.36250972e-05
1.362382198e-05
1.362255026e-05
1.362128202e-05
1.362001727e-05
1.361875599e-05
1.361749817e-05
1.361624382e-05
1.361499292e-05
1.361374547e-05
1.361250147e-05
1.361126091e-05
1.361002378e-05
1.360879009e-05
1.360755983e-05
1.3606333e-05
1.360510959e-05
1.360388961e-05
1.360267306e-05
1.360145993e-05
1.360025023e-05
1.359904396e-05
1.359784112e-05
1.359664171e-05
1.359544574e-05
1.359425321e-05
1.359306413e-05
1.359187851e-05
1.359069635e-05
1.358951767e-05
1.358834246e-05
1.358717075e-05
1.358600255e-05
1.358483786e-05
1.358367671e-05
1.358251911e-05
1.358136508e-05
1.358021464e-05
1.35790678e-05
1.35779246e-05
1.357678505e-05
1.357564918e-05
1.357451703e-05
1.357338861e-05
1.357226396e-05
1.357114313e-05
1.357002613e-05
1.356891302e-05
1.356780384e-05
1.356669863e-05
1.356559743e-05
1.35645003e-05
1.35634073e-05
1.356231847e-05
1.356123389e-05
1.356015361e-05
1.35590777e-05
1.355800624e-05
1.35569393e-05
1.355587696e-05
1.355481932e-05
1.355376645e-05
1.355271845e-05
1.355167543e-05
1.35506375e-05
1.354960476e-05
1.354857734e-05
1.354755536e-05
1.354653896e-05
1.354552827e-05
1.354452345e-05
1.354352465e-05
1.354253203e-05
1.354154578e-05
1.354056607e-05
1.353959309e-05
1.353862706e-05
1.353766819e-05
1.35367167e-05
1.353577283e-05
1.353483684e-05
1.353390899e-05
1.353298956e-05
1.353207884e-05
1.353117714e-05
1.353028479e-05
1.352940214e-05
1.352852954e-05
1.352766738e-05
1.352681607e-05
1.352597602e-05
1.352514767e-05
1.352433152e-05
1.352352804e-05
1.352273775e-05
1.352196122e-05
1.352119902e-05
1.352045176e-05
1.351972009e-05
1.351900468e-05
1.351830625e-05
1.351762555e-05
1.351696338e-05
1.351632058e-05
1.351569803e-05
1.351509667e-05
1.351451749e-05
1.351396153e-05
1.351342989e-05
1.351292374e-05
1.351244438e-05
1.351199314e-05
1.351157024e-05
1.351117663e-05
1.351081415e-05
1.351048463e-05
1.35101899e-05
1.350993182e-05
1.350971229e-05
1.350953329e-05
1.350939685e-05
1.350930508e-05
1.350926021e-05
1.350926457e-05
1.350932062e-05
1.350943095e-05
1.350959828e-05
1.35098255e-05
1.351011563e-05
1.35104719e-05
1.351089769e-05
1.351139661e-05
1.351197246e-05
1.351262928e-05
1.351337135e-05
1.351420321e-05
1.351512968e-05
1.351615589e-05
1.351728728e-05
1.351852966e-05
1.351988919e-05
1.352137244e-05
1.352298642e-05
1.352473861e-05
1.352663698e-05
1.352869008e-05
1.353090703e-05
1.35332976e-05
1.353587227e-05
1.353864226e-05
1.354161966e-05
1.354481744e-05
1.35482496e-05
1.35519312e-05
1.355587854e-05
1.356010924e-05
1.356464238e-05
1.356949871e-05
1.357470076e-05
1.358027311e-05
1.358624262e-05
1.35926387e-05
1.359949364e-05
1.3606843e-05
1.361472605e-05
1.362318633e-05
1.363227223e-05
1.364203776e-05
1.365254342e-05
1.366385723e-05
1.367605593e-05
1.368922624e-05
1.370346613e-05
1.371888551e-05
1.3735605e-05
1.375374763e-05
1.377342169e-05
1.379517544e-05
0.0002439289242
0.0001513331687
0.0001170099778
9.822016163e-05
8.598659251e-05
7.721273289e-05
7.052261535e-05
6.520115773e-05
6.083599778e-05
5.71707368e-05
5.403641719e-05
5.131653624e-05
4.892795906e-05
4.68095347e-05
4.491502385e-05
4.320870441e-05
4.166244678e-05
4.025373884e-05
3.896430903e-05
3.777914929e-05
3.668581132e-05
3.567387398e-05
3.473452793e-05
3.386026262e-05
3.304462968e-05
3.228205441e-05
3.15676832e-05
3.089726502e-05
3.026705946e-05
2.967376503e-05
2.911445959e-05
2.858654539e-05
2.808770123e-05
2.761584544e-05
2.716910555e-05
2.674579223e-05
2.634437746e-05
2.596347498e-05
2.560182379e-05
2.52582759e-05
2.493178503e-05
2.462139419e-05
2.432622507e-05
2.404547077e-05
2.377838919e-05
2.352429664e-05
2.328256283e-05
2.305260622e-05
2.28338884e-05
2.26259092e-05
2.242820391e-05
2.224034087e-05
2.206191867e-05
2.189256369e-05
2.173192784e-05
2.157968653e-05
2.143553679e-05
2.129919555e-05
2.11703982e-05
2.104889698e-05
2.093445927e-05
2.082686697e-05
2.07259158e-05
2.063141411e-05
2.054318191e-05
2.046105e-05
2.03848592e-05
2.031445965e-05
2.024971017e-05
2.019047766e-05
2.013663657e-05
2.008806841e-05
2.004466131e-05
2.000630974e-05
1.997291422e-05
1.994438021e-05
1.992061706e-05
1.990153859e-05
1.988706357e-05
1.987711504e-05
1.987161989e-05
1.987050858e-05
1.987371495e-05
1.988117589e-05
1.989283104e-05
1.990862256e-05
1.992849478e-05
1.995239381e-05
1.998026674e-05
2.001205846e-05
2.004770107e-05
2.008676907e-05
2.012706088e-05
2.016854532e-05
2.021119526e-05
2.025498806e-05
2.029990302e-05
2.034592115e-05
2.039302622e-05
2.044119276e-05
2.049037321e-05
2.05405192e-05
2.059158586e-05
2.064353144e-05
2.069631626e-05
2.074990232e-05
2.080425303e-05
2.085933304e-05
2.0915108e-05
2.09715444e-05
2.102860952e-05
2.108627139e-05
2.11444987e-05
2.120326075e-05
2.126252738e-05
2.132226894e-05
2.138245621e-05
2.144306038e-05
2.150405307e-05
2.156540667e-05
2.162709388e-05
2.168908774e-05
2.175136162e-05
2.181388927e-05
2.187664481e-05
2.193960277e-05
2.200273805e-05
2.206602595e-05
2.212944216e-05
2.219296279e-05
2.225656435e-05
2.232022377e-05
2.238391841e-05
2.244762608e-05
2.251132508e-05
2.257499414e-05
2.263861247e-05
2.270215974e-05
2.276561611e-05
2.282896226e-05
2.289217936e-05
2.295524906e-05
2.301815354e-05
2.308087552e-05
2.314339822e-05
2.320570525e-05
2.326778065e-05
2.3329609e-05
2.339117541e-05
2.345246555e-05
2.35134656e-05
2.357416229e-05
2.363454284e-05
2.369459501e-05
2.375430708e-05
2.381366783e-05
2.387266654e-05
2.393129301e-05
2.398953754e-05
2.404739093e-05
2.410484445e-05
2.416188987e-05
2.421851945e-05
2.427472592e-05
2.433050245e-05
2.438584272e-05
2.444074081e-05
2.449519129e-05
2.454918914e-05
2.460272976e-05
2.465580897e-05
2.470842302e-05
2.476056854e-05
2.481224254e-05
2.486344244e-05
2.491416604e-05
2.496441149e-05
2.501417729e-05
2.506346231e-05
2.511226573e-05
2.516058706e-05
2.520842612e-05
2.525578303e-05
2.530265821e-05
2.534905237e-05
2.539496648e-05
2.544040175e-05
2.548535967e-05
2.552984195e-05
2.557385052e-05
2.561738754e-05
2.566045536e-05
2.570305654e-05
2.574519383e-05
2.578687015e-05
2.582808858e-05
2.586885237e-05
2.590916493e-05
2.594902978e-05
2.598845058e-05
2.602743114e-05
2.606597536e-05
2.610408726e-05
2.614177095e-05
2.617903066e-05
2.621587068e-05
2.625229536e-05
2.628830915e-05
2.632391653e-05
2.635912204e-05
2.639393027e-05
2.642834586e-05
2.64623735e-05
2.649601788e-05
2.652928374e-05
2.656217583e-05
2.659469894e-05
2.662685783e-05
2.66586573e-05
2.669010213e-05
2.672119711e-05
2.675194702e-05
2.678235663e-05
2.681243069e-05
2.684217393e-05
2.687159108e-05
2.690068683e-05
2.692946582e-05
2.695793271e-05
2.698609209e-05
2.701394852e-05
2.704150654e-05
2.706877064e-05
2.709574526e-05
2.712243482e-05
2.714884367e-05
2.717497613e-05
2.720083646e-05
2.722642889e-05
2.725175758e-05
2.727682664e-05
2.730164014e-05
2.732620208e-05
2.735051641e-05
2.737458704e-05
2.73984178e-05
2.742201248e-05
2.744537483e-05
2.74685085e-05
2.749141715e-05
2.751410432e-05
2.753657353e-05
2.755882822e-05
2.758087181e-05
2.760270762e-05
2.762433895e-05
2.764576902e-05
2.7667001e-05
2.768803803e-05
2.770888315e-05
2.772953938e-05
2.775000967e-05
2.777029693e-05
2.779040401e-05
2.781033371e-05
2.783008876e-05
2.784967186e-05
2.786908564e-05
2.78883327e-05
2.790741556e-05
2.792633672e-05
2.794509861e-05
2.796370362e-05
2.79821541e-05
2.800045233e-05
2.801860057e-05
2.803660103e-05
2.805445585e-05
2.807216717e-05
2.808973704e-05
2.81071675e-05
2.812446055e-05
2.814161812e-05
2.815864213e-05
2.817553445e-05
2.819229691e-05
2.82089313e-05
2.822543938e-05
2.824182287e-05
2.825808344e-05
2.827422274e-05
2.829024236e-05
2.830614388e-05
2.832192883e-05
2.833759873e-05
2.835315506e-05
2.836859926e-05
2.838393275e-05
2.839915692e-05
2.841427312e-05
2.84292827e-05
2.844418694e-05
2.845898714e-05
2.847368454e-05
2.848828037e-05
2.850277582e-05
2.851717207e-05
2.853147027e-05
2.854567156e-05
2.855977702e-05
2.857378776e-05
2.858770482e-05
2.860152925e-05
2.861526207e-05
2.862890427e-05
2.864245683e-05
2.865592072e-05
2.866929688e-05
2.868258622e-05
2.869578966e-05
2.870890808e-05
2.872194235e-05
2.873489334e-05
2.874776187e-05
2.876054878e-05
2.877325487e-05
2.878588093e-05
2.879842776e-05
2.88108961e-05
2.882328672e-05
2.883560035e-05
2.884783772e-05
2.885999954e-05
2.887208652e-05
2.888409933e-05
2.889603865e-05
2.890790516e-05
2.891969949e-05
2.893142229e-05
2.89430742e-05
2.895465584e-05
2.896616782e-05
2.897761075e-05
2.898898522e-05
2.900029182e-05
2.901153112e-05
2.902270369e-05
2.90338101e-05
2.904485089e-05
2.905582661e-05
2.906673779e-05
2.907758497e-05
2.908836866e-05
2.909908938e-05
2.910974763e-05
2.912034392e-05
2.913087873e-05
2.914135255e-05
2.915176585e-05
2.916211912e-05
2.917241281e-05
2.918264739e-05
2.919282331e-05
2.920294102e-05
2.921300097e-05
2.922300359e-05
2.923294932e-05
2.924283859e-05
2.925267183e-05
2.926244945e-05
2.927217186e-05
2.928183947e-05
2.92914527e-05
2.930101193e-05
2.931051755e-05
2.931996997e-05
2.932936957e-05
2.933871671e-05
2.93480118e-05
2.935725518e-05
2.936644725e-05
2.937558835e-05
2.938467885e-05
2.939371911e-05
2.940270948e-05
2.941165032e-05
2.942054197e-05
2.942938477e-05
2.943817907e-05
2.94469252e-05
2.94556235e-05
2.94642743e-05
2.947287791e-05
2.948143466e-05
2.948994488e-05
2.949840886e-05
2.950682693e-05
2.95151994e-05
2.952352657e-05
2.953180875e-05
2.954004623e-05
2.954823932e-05
2.955638832e-05
2.956449351e-05
2.957255518e-05
2.958057362e-05
2.958854913e-05
2.959648197e-05
2.960437243e-05
2.961222078e-05
2.962002731e-05
2.962779229e-05
2.963551598e-05
2.964319865e-05
2.965084058e-05
2.965844202e-05
2.966600324e-05
2.96735245e-05
2.968100604e-05
2.968844814e-05
2.969585104e-05
2.970321499e-05
2.971054024e-05
2.971782704e-05
2.972507563e-05
2.973228626e-05
2.973945917e-05
2.974659459e-05
2.975369277e-05
2.976075394e-05
2.976777833e-05
2.977476618e-05
2.978171771e-05
2.978863315e-05
2.979551274e-05
2.980235669e-05
2.980916523e-05
2.981593858e-05
2.982267696e-05
2.982938059e-05
2.983604969e-05
2.984268448e-05
2.984928515e-05
2.985585194e-05
2.986238505e-05
2.986888468e-05
2.987535105e-05
2.988178435e-05
2.98881848e-05
2.98945526e-05
2.990088794e-05
2.990719103e-05
2.991346207e-05
2.991970125e-05
2.992590878e-05
2.993208484e-05
2.993822964e-05
2.994434336e-05
2.99504262e-05
2.995647835e-05
2.996249999e-05
2.996849132e-05
2.997445253e-05
2.99803838e-05
2.998628531e-05
2.999215726e-05
2.999799981e-05
3.000381316e-05
3.000959748e-05
3.001535295e-05
3.002107974e-05
3.002677805e-05
3.003244803e-05
3.003808986e-05
3.004370372e-05
3.004928978e-05
3.00548482e-05
3.006037916e-05
3.006588282e-05
3.007135936e-05
3.007680893e-05
3.00822317e-05
3.008762785e-05
3.009299752e-05
3.009834088e-05
3.01036581e-05
3.010894933e-05
3.011421474e-05
3.011945449e-05
3.012466873e-05
3.012985762e-05
3.013502132e-05
3.014015998e-05
3.014527376e-05
3.015036281e-05
3.015542729e-05
3.016046733e-05
3.01654831e-05
3.017047474e-05
3.017544241e-05
3.018038624e-05
3.018530638e-05
3.019020299e-05
3.019507621e-05
3.019992617e-05
3.020475303e-05
3.020955693e-05
3.0214338e-05
3.02190964e-05
3.022383226e-05
3.022854572e-05
3.023323692e-05
3.023790599e-05
3.024255308e-05
3.024717831e-05
3.025178182e-05
3.025636374e-05
3.026092422e-05
3.026546337e-05
3.026998134e-05
3.027447825e-05
3.027895424e-05
3.028340944e-05
3.028784398e-05
3.029225798e-05
3.029665158e-05
3.030102491e-05
3.03053781e-05
3.030971127e-05
3.031402455e-05
3.031831806e-05
3.032259195e-05
3.032684632e-05
3.033108131e-05
3.033529704e-05
3.033949363e-05
3.034367121e-05
3.034782991e-05
3.035196985e-05
3.035609116e-05
3.036019395e-05
3.036427835e-05
3.036834449e-05
3.037239249e-05
3.037642247e-05
3.038043457e-05
3.03844289e-05
3.038840559e-05
3.039236477e-05
3.039630656e-05
3.040023108e-05
3.040413847e-05
3.040802885e-05
3.041190235e-05
3.041575909e-05
3.041959921e-05
3.042342284e-05
3.04272301e-05
3.043102113e-05
3.043479607e-05
3.043855503e-05
3.044229817e-05
3.044602562e-05
3.044973751e-05
3.045343398e-05
3.045711519e-05
3.046078126e-05
3.046443235e-05
3.046806861e-05
3.047169017e-05
3.047529721e-05
3.047888986e-05
3.048246829e-05
3.048603267e-05
3.048958314e-05
3.049311988e-05
3.049664307e-05
3.050015287e-05
3.050364946e-05
3.050713302e-05
3.051060375e-05
3.051406183e-05
3.051750747e-05
3.052094085e-05
3.052436219e-05
3.052777171e-05
3.053116962e-05
3.053455615e-05
3.053793152e-05
3.0541296e-05
3.054464981e-05
3.054799321e-05
3.055132648e-05
3.055464989e-05
3.055796371e-05
3.056126825e-05
3.05645638e-05
3.056785069e-05
3.057112924e-05
3.057439979e-05
3.05776627e-05
3.058091833e-05
3.058416707e-05
3.058740931e-05
3.059064547e-05
3.059387599e-05
3.059710131e-05
3.060032191e-05
3.060353828e-05
3.060675093e-05
3.06099604e-05
3.061316723e-05
3.061637203e-05
3.061957539e-05
3.062277794e-05
3.062598035e-05
3.062918331e-05
3.063238756e-05
3.063559385e-05
3.063880299e-05
3.064201582e-05
3.064523322e-05
3.064845614e-05
3.065168552e-05
3.065492241e-05
3.065816786e-05
3.066142302e-05
3.066468906e-05
3.066796723e-05
3.067125884e-05
3.067456527e-05
3.067788798e-05
3.06812285e-05
3.068458844e-05
3.06879695e-05
3.069137349e-05
3.069480229e-05
3.069825793e-05
3.070174253e-05
3.070525834e-05
3.070880775e-05
3.071239332e-05
3.071601771e-05
3.071968379e-05
3.072339488e-05
3.072715524e-05
3.073097077e-05
3.073485025e-05
3.073866776e-05
3.074233572e-05
3.074589829e-05
3.074938347e-05
3.075278907e-05
3.075611235e-05
3.075935007e-05
3.076249898e-05
3.076555606e-05
3.076851834e-05
3.077138279e-05
3.07741462e-05
3.077680518e-05
3.077935618e-05
3.078179547e-05
3.078411914e-05
3.078632305e-05
3.078840287e-05
3.079035401e-05
3.079217167e-05
3.079385077e-05
3.0795386e-05
3.079677175e-05
3.079800212e-05
3.079907091e-05
3.079997159e-05
3.080069727e-05
3.080124072e-05
3.08015943e-05
3.080174998e-05
3.080169929e-05
3.08014333e-05
3.08009426e-05
3.080021729e-05
3.079924692e-05
3.079802047e-05
3.079652634e-05
3.079475229e-05
3.079268543e-05
3.079031217e-05
3.078761818e-05
3.078458838e-05
3.078120688e-05
3.077745696e-05
3.0773321e-05
3.076878048e-05
3.076381591e-05
3.075840679e-05
3.07525316e-05
3.074616767e-05
3.073929118e-05
3.073187699e-05
3.072389849e-05
3.071532734e-05
3.070613289e-05
3.069628131e-05
3.068573388e-05
3.067444382e-05
3.066235022e-05
3.064936617e-05
3.063535482e-05
3.06200802e-05
3.060310204e-05
3.058354148e-05
3.055950909e-05
3.052099803e-05
0.0005740263283
0.0004451927268
0.0003638087111
0.0003094980289
0.0002709274031
0.0002421063276
0.0002197013786
0.0002017369865
0.0001869746292
0.0001746005493
0.0001640583038
0.0001549542928
0.000147002578
0.0001399900436
0.0001337542459
0.000128169121
0.0001231350671
0.0001185722465
0.0001144158413
0.0001106126503
0.0001071186586
0.0001038971032
0.0001009169632
9.815186426e-05
9.557923399e-05
9.317962014e-05
9.093613612e-05
8.883403841e-05
8.686039298e-05
8.500382609e-05
8.32543022e-05
8.160292085e-05
8.004174802e-05
7.856368851e-05
7.716237633e-05
7.583208034e-05
7.456762792e-05
7.33643322e-05
7.22179362e-05
7.112457226e-05
7.008071817e-05
6.908315372e-05
6.812892521e-05
6.721532155e-05
6.633985111e-05
6.550021909e-05
6.469431176e-05
6.392017188e-05
6.317597693e-05
6.246003376e-05
6.17707722e-05
6.110673484e-05
6.04665665e-05
5.984900504e-05
5.92528736e-05
5.867707351e-05
5.812057794e-05
5.758242623e-05
5.706171907e-05
5.655761388e-05
5.606931784e-05
5.559608515e-05
5.513721582e-05
5.469205183e-05
5.425997365e-05
5.384039762e-05
5.343277345e-05
5.303658204e-05
5.265133345e-05
5.227656504e-05
5.191183977e-05
5.15567446e-05
5.121088912e-05
5.087390438e-05
5.054544154e-05
5.022517014e-05
4.991277588e-05
4.960796094e-05
4.931044347e-05
4.901995681e-05
4.873624861e-05
4.845908054e-05
4.818822672e-05
4.792347308e-05
4.766461643e-05
4.741146375e-05
4.716383121e-05
4.692154252e-05
4.668442634e-05
4.645231144e-05
4.622503553e-05
4.600255315e-05
4.578502019e-05
4.557249116e-05
4.536500342e-05
4.516257115e-05
4.496518763e-05
4.477282654e-05
4.458544056e-05
4.440260317e-05
4.422364012e-05
4.404853976e-05
4.387727938e-05
4.370982777e-05
4.354614611e-05
4.338618943e-05
4.322990798e-05
4.307724813e-05
4.292815289e-05
4.27825631e-05
4.264041816e-05
4.250165679e-05
4.236621729e-05
4.223403795e-05
4.210505728e-05
4.197921426e-05
4.185644838e-05
4.173669968e-05
4.161990944e-05
4.150602122e-05
4.139497873e-05
4.128672651e-05
4.118121022e-05
4.107837675e-05
4.097817411e-05
4.088055145e-05
4.078545899e-05
4.069284811e-05
4.060267119e-05
4.051488164e-05
4.042943389e-05
4.034628331e-05
4.026538624e-05
4.01867e-05
4.011018289e-05
4.003579411e-05
3.99634937e-05
3.989324248e-05
3.982500218e-05
3.975873525e-05
3.969440488e-05
3.963197488e-05
3.957140974e-05
3.951267461e-05
3.945573527e-05
3.940055799e-05
3.934710954e-05
3.929535714e-05
3.924526856e-05
3.919681205e-05
3.914995646e-05
3.910467109e-05
3.90609258e-05
3.90186909e-05
3.897793716e-05
3.893863584e-05
3.890075861e-05
3.886427761e-05
3.882916538e-05
3.879539488e-05
3.876293949e-05
3.873177299e-05
3.870186954e-05
3.867320369e-05
3.86457504e-05
3.861948498e-05
3.859438311e-05
3.857042083e-05
3.854757456e-05
3.852582104e-05
3.850513737e-05
3.8485501e-05
3.846688972e-05
3.844928167e-05
3.843265531e-05
3.841698947e-05
3.840226335e-05
3.838845646e-05
3.837554864e-05
3.836352007e-05
3.835235126e-05
3.834202304e-05
3.833251657e-05
3.832381331e-05
3.831589509e-05
3.830874402e-05
3.830234253e-05
3.829667335e-05
3.829171952e-05
3.828746436e-05
3.828389153e-05
3.828098494e-05
3.827872882e-05
3.82771077e-05
3.827610637e-05
3.827570993e-05
3.827590375e-05
3.827667348e-05
3.827800505e-05
3.827988466e-05
3.828229879e-05
3.828523418e-05
3.828867787e-05
3.829261714e-05
3.829703954e-05
3.83019329e-05
3.830728526e-05
3.831308493e-05
3.831932043e-05
3.832598054e-05
3.833305427e-05
3.834053088e-05
3.834839987e-05
3.835665096e-05
3.83652741e-05
3.837425947e-05
3.838359747e-05
3.839327872e-05
3.840329403e-05
3.841363445e-05
3.842429122e-05
3.843525578e-05
3.844651978e-05
3.845807505e-05
3.846991363e-05
3.848202773e-05
3.849440975e-05
3.850705227e-05
3.851994805e-05
3.853309002e-05
3.854647128e-05
3.85600851e-05
3.857392489e-05
3.858798426e-05
3.860225694e-05
3.861673682e-05
3.863141795e-05
3.864629453e-05
3.866136086e-05
3.867661143e-05
3.869204082e-05
3.870764378e-05
3.872341514e-05
3.87393499e-05
3.875544316e-05
3.877169015e-05
3.87880862e-05
3.880462678e-05
3.882130745e-05
3.88381239e-05
3.885507193e-05
3.887214742e-05
3.888934636e-05
3.890666484e-05
3.892409906e-05
3.894164529e-05
3.895929991e-05
3.897705938e-05
3.899492025e-05
3.901287917e-05
3.903093284e-05
3.904907807e-05
3.906731174e-05
3.90856308e-05
3.910403229e-05
3.912251331e-05
3.914107102e-05
3.915970267e-05
3.917840554e-05
3.919717702e-05
3.921601451e-05
3.923491551e-05
3.925387757e-05
3.927289829e-05
3.929197532e-05
3.931110638e-05
3.933028924e-05
3.934952171e-05
3.936880166e-05
3.938812701e-05
3.940749573e-05
3.942690581e-05
3.944635534e-05
3.94658424e-05
3.948536514e-05
3.950492175e-05
3.952451047e-05
3.954412955e-05
3.956377732e-05
3.95834521e-05
3.960315227e-05
3.962287622e-05
3.964262239e-05
3.966238927e-05
3.968217536e-05
3.970197919e-05
3.972179935e-05
3.974163444e-05
3.97614831e-05
3.978134398e-05
3.98012158e-05
3.982109725e-05
3.984098711e-05
3.986088413e-05
3.988078714e-05
3.990069495e-05
3.992060642e-05
3.994052043e-05
3.996043588e-05
3.99803517e-05
4.000026683e-05
4.002018025e-05
4.004009095e-05
4.005999795e-05
4.007990028e-05
4.0099797e-05
4.011968718e-05
4.013956993e-05
4.015944435e-05
4.017930959e-05
4.019916479e-05
4.021900913e-05
4.02388418e-05
4.0258662e-05
4.027846895e-05
4.029826191e-05
4.031804011e-05
4.033780284e-05
4.035754938e-05
4.037727904e-05
4.039699114e-05
4.0416685e-05
4.043635998e-05
4.045601543e-05
4.047565072e-05
4.049526525e-05
4.051485841e-05
4.05344296e-05
4.055397826e-05
4.057350382e-05
4.059300573e-05
4.061248345e-05
4.063193647e-05
4.065136426e-05
4.067076633e-05
4.069014218e-05
4.070949134e-05
4.072881333e-05
4.07481077e-05
4.0767374e-05
4.078661179e-05
4.080582066e-05
4.082500019e-05
4.084414996e-05
4.086326958e-05
4.088235867e-05
4.090141683e-05
4.092044371e-05
4.093943894e-05
4.095840217e-05
4.097733304e-05
4.099623123e-05
4.10150964e-05
4.103392825e-05
4.105272644e-05
4.107149069e-05
4.109022071e-05
4.110891619e-05
4.112757688e-05
4.114620248e-05
4.116479275e-05
4.118334741e-05
4.120186622e-05
4.122034892e-05
4.123879529e-05
4.125720509e-05
4.127557808e-05
4.129391406e-05
4.131221279e-05
4.133047409e-05
4.134869773e-05
4.136688353e-05
4.138503129e-05
4.140314083e-05
4.142121197e-05
4.143924453e-05
4.145723834e-05
4.147519325e-05
4.149310909e-05
4.151098571e-05
4.152882296e-05
4.154662071e-05
4.156437879e-05
4.158209709e-05
4.159977546e-05
4.161741378e-05
4.163501192e-05
4.165256976e-05
4.167008719e-05
4.16875641e-05
4.170500038e-05
4.172239594e-05