/*--------------------------------*- C++ -*----------------------------------*\
| =========                 |                                                 |
| \\      /  F ield         | OpenFOAM: The Open Source CFD Toolbox           |
|  \\    /   O peration     | Version:  2312                                  |
|   \\  /    A nd           | Website:  www.openfoam.com                      |
|    \\/     M anipulation  |                                                 |
\*---------------------------------------------------------------------------*/
FoamFile
{
    version     2.0;
    format      ascii;
    arch        "LSB;label=32;scalar=64";
    class       volScalarField;
    location    "459";
    object      p;
}
// * * * * * * * * * * * * * * * * * * * * * * * * * * * * * * * * * * * * * //

dimensions      [0 2 -2 0 0 0 0];

internalField   nonuniform List<scalar> 
63546
(
0.007180214
0.005008923363
0.003444949823
0.002498705233
0.001828608627
0.001275089814
0.0008034905449
0.0003993668214
4.569018036e-05
-0.0002719545117
-0.000562870716
-0.0008324827779
-0.001084001428
-0.001320228514
-0.00154411852
-0.001758159132
-0.001964257766
-0.002163801636
-0.002357765468
-0.002546805965
-0.0027313755
-0.002911893281
-0.003088832576
-0.003262662738
-0.003433795819
-0.003602602985
-0.003769419714
-0.003934499859
-0.004097989696
-0.004259955209
-0.004420450937
-0.004579575026
-0.004737459082
-0.004894224626
-0.00504996939
-0.005204775733
-0.005358712856
-0.005511837434
-0.005664186725
-0.005815781003
-0.005966649658
-0.006116845182
-0.006266424414
-0.006415425915
-0.006563872868
-0.006711785506
-0.006859185492
-0.007006102624
-0.007152577023
-0.007298640903
-0.007444304956
-0.007589568033
-0.007734429383
-0.007878890373
-0.008022952711
-0.00816661819
-0.008309889072
-0.008452768222
-0.008595259326
-0.008737368149
-0.008879104138
-0.009020471094
-0.009161464528
-0.009302079996
-0.009442316628
-0.009582175637
-0.009721658403
-0.009860765997
-0.009999499342
-0.01013785937
-0.01027584709
-0.01041346371
-0.01055071113
-0.01068759301
-0.01082410993
-0.01096023474
-0.01109593935
-0.01123124648
-0.01136618596
-0.0115007571
-0.01163495072
-0.01176876027
-0.01190218181
-0.01203521182
-0.01216784519
-0.01230007363
-0.01243188342
-0.01256325123
-0.01269413493
-0.01282445204
-0.01295401946
-0.01308256662
-0.01321055892
-0.01333864494
-0.01346671923
-0.01359455591
-0.01372204818
-0.01384915456
-0.01397584612
-0.01410214026
-0.01422813553
-0.0143538987
-0.01447939976
-0.01460459581
-0.01472947148
-0.01485402717
-0.01497826539
-0.01510218813
-0.01522579767
-0.01534909577
-0.01547208344
-0.01559476173
-0.01571713245
-0.01583919799
-0.01596096097
-0.01608242385
-0.01620358878
-0.01632445705
-0.01644502815
-0.01656530051
-0.01668527892
-0.01680497
-0.01692437885
-0.01704350911
-0.01716236419
-0.01728094768
-0.01739926303
-0.01751731347
-0.01763510209
-0.01775263186
-0.01786990552
-0.01798692554
-0.0181036943
-0.01822021422
-0.01833648798
-0.01845251852
-0.01856830892
-0.01868386213
-0.01879918108
-0.01891426907
-0.01902912973
-0.01914376674
-0.01925818381
-0.01937238498
-0.01948637133
-0.01960014105
-0.01971369787
-0.01982704992
-0.019940202
-0.02005315581
-0.02016591285
-0.02027847523
-0.0203908454
-0.02050302585
-0.0206150191
-0.02072682766
-0.02083845402
-0.02094990067
-0.0210611701
-0.02117226479
-0.02128318716
-0.02139393961
-0.02150452454
-0.02161494433
-0.02172520129
-0.02183529772
-0.0219452359
-0.02205501801
-0.02216464619
-0.02227412242
-0.02238344859
-0.02249262652
-0.02260165795
-0.02271054455
-0.02281928798
-0.02292788991
-0.02303635205
-0.02314467615
-0.02325286395
-0.02336091712
-0.02346883735
-0.02357662625
-0.02368428549
-0.02379181675
-0.02389922172
-0.02400650209
-0.02411365949
-0.02422069554
-0.02432761174
-0.02443440953
-0.0245410903
-0.0246476554
-0.02475410617
-0.02486044387
-0.02496666973
-0.02507278495
-0.02517879068
-0.02528468802
-0.02539047799
-0.02549616158
-0.02560173982
-0.02570721371
-0.02581258428
-0.02591785255
-0.0260230196
-0.02612808647
-0.02623305412
-0.0263379234
-0.02644269505
-0.02654736971
-0.02665194803
-0.02675643068
-0.02686081835
-0.02696511174
-0.02706931152
-0.02717341836
-0.02727743293
-0.0273813559
-0.0274851879
-0.02758892955
-0.02769258149
-0.02779614432
-0.02789961864
-0.02800300501
-0.02810630401
-0.02820951619
-0.0283126421
-0.02841568228
-0.02851863724
-0.0286215075
-0.02872429357
-0.02882699595
-0.02892961511
-0.02903215156
-0.02913460577
-0.02923697821
-0.02933926933
-0.0294414796
-0.02954360945
-0.02964565927
-0.02974762944
-0.02984952032
-0.02995133223
-0.03005306549
-0.03015472039
-0.03025629723
-0.03035779631
-0.03045921792
-0.03056056237
-0.03066183
-0.03076302116
-0.03086413616
-0.0309651753
-0.03106613885
-0.03116702711
-0.0312678404
-0.03136857904
-0.03146924332
-0.03156983359
-0.03167035014
-0.0317707933
-0.03187116339
-0.03197146078
-0.03207168585
-0.03217183891
-0.03227192032
-0.03237193039
-0.03247186945
-0.03257173776
-0.03267153562
-0.03277126332
-0.03287092112
-0.03297050929
-0.03307002809
-0.03316947779
-0.03326885864
-0.03336817093
-0.03346741488
-0.03356659077
-0.03366569887
-0.03376473944
-0.03386371275
-0.03396261907
-0.03406145872
-0.03416023198
-0.03425893918
-0.03435758059
-0.03445615655
-0.0345546673
-0.03465311307
-0.03475149401
-0.03484981028
-0.03494806205
-0.03504624946
-0.03514437269
-0.03524243195
-0.03534042743
-0.03543835936
-0.03553622791
-0.03563403333
-0.03573177584
-0.03582945563
-0.03592707294
-0.03602462799
-0.036122121
-0.0362195522
-0.03631692179
-0.03641422999
-0.03651147703
-0.03660866314
-0.03670578851
-0.03680285337
-0.03689985793
-0.03699680242
-0.03709368704
-0.03719051199
-0.0372872775
-0.03738398379
-0.03748063105
-0.0375772195
-0.03767374936
-0.03777022083
-0.03786663413
-0.03796298945
-0.03805928701
-0.03815552704
-0.03825170973
-0.0383478353
-0.03844390396
-0.03853991592
-0.03863587139
-0.03873177058
-0.03882761367
-0.03892340085
-0.0390191323
-0.03911480818
-0.03921042864
-0.03930599384
-0.03940150396
-0.03949695914
-0.03959235957
-0.03968770544
-0.03978299694
-0.03987823426
-0.03997341756
-0.04006854703
-0.04016362286
-0.04025864523
-0.04035361431
-0.04044853031
-0.04054339345
-0.04063820391
-0.04073296187
-0.04082766753
-0.04092232108
-0.04101692268
-0.0411114725
-0.04120597072
-0.0413004175
-0.04139481302
-0.04148915741
-0.04158345084
-0.04167769349
-0.04177188553
-0.04186602714
-0.04196011851
-0.04205415984
-0.04214815132
-0.04224209315
-0.04233598551
-0.04242982858
-0.04252362255
-0.04261736759
-0.04271106386
-0.04280471154
-0.04289831079
-0.04299186178
-0.04308536466
-0.0431788196
-0.04327222678
-0.04336558634
-0.04345889846
-0.04355216329
-0.04364538101
-0.04373855179
-0.0438316758
-0.04392475322
-0.04401778423
-0.04411076902
-0.04420370775
-0.0442966006
-0.04438944773
-0.0444822493
-0.04457500542
-0.04466771622
-0.04476038185
-0.04485300245
-0.04494557814
-0.04503810907
-0.04513059538
-0.04522303723
-0.04531543473
-0.04540778804
-0.04550009728
-0.04559236259
-0.04568458411
-0.04577676195
-0.04586889625
-0.04596098716
-0.04605303481
-0.04614503932
-0.04623700083
-0.04632891948
-0.04642079542
-0.04651262878
-0.04660441968
-0.04669616828
-0.04678787471
-0.04687953911
-0.04697116161
-0.04706274235
-0.04715428147
-0.04724577909
-0.04733723535
-0.04742865037
-0.04752002431
-0.04761135729
-0.04770264943
-0.04779390088
-0.04788511177
-0.04797628223
-0.04806741238
-0.04815850235
-0.04824955228
-0.0483405623
-0.04843153254
-0.04852246312
-0.04861335418
-0.04870420585
-0.04879501824
-0.04888579151
-0.04897652576
-0.04906722114
-0.04915787776
-0.04924849574
-0.04933907519
-0.04942961624
-0.04952011898
-0.04961058351
-0.04970100994
-0.04979139839
-0.04988174896
-0.04997206177
-0.05006233693
-0.05015257458
-0.05024277482
-0.05033293776
-0.05042306352
-0.05051315223
-0.05060320401
-0.05069321898
-0.05078319728
-0.05087313905
-0.05096304439
-0.05105291344
-0.05114274632
-0.05123254316
-0.05132230408
-0.05141202921
-0.05150171866
-0.05159137255
-0.05168099102
-0.05177057417
-0.05186012212
-0.05194963498
-0.05203911289
-0.05212855594
-0.05221796426
-0.05230733795
-0.05239667715
-0.05248598197
-0.05257525253
-0.05266448895
-0.05275369135
-0.05284285986
-0.05293199461
-0.05302109572
-0.05311016336
-0.05319919766
-0.05328819875
-0.0533771668
-0.05346610196
-0.05355500436
-0.05364387415
-0.05373271149
-0.05382151652
-0.05391028939
-0.05399903027
-0.05408773928
-0.05417641661
-0.05426506242
-0.05435367686
-0.0544422601
-0.05453081231
-0.05461933368
-0.05470782438
-0.05479628458
-0.0548847145
-0.05497311433
-0.05506148428
-0.05514982453
-0.0552381353
-0.0553264168
-0.05541466922
-0.05550289278
-0.05559108769
-0.05567925417
-0.05576739245
-0.05585550277
-0.05594358537
-0.05603164053
-0.05611966849
-0.05620766955
-0.05629564399
-0.05638359212
-0.05647151427
-0.05655941074
-0.05664728186
-0.056735128
-0.0568229495
-0.05691074674
-0.05699852011
-0.05708627001
-0.05717399688
-0.05726170115
-0.05734938327
-0.05743704373
-0.05752468301
-0.05761230161
-0.05769990004
-0.05778747887
-0.05787503867
-0.05796258004
-0.05805010362
-0.05813761008
-0.05822510013
-0.05831257449
-0.05840003393
-0.05848747926
-0.0585749113
-0.05866233095
-0.05874973911
-0.05883713673
-0.05892452481
-0.05901190441
-0.05909927661
-0.05918664256
-0.05927400345
-0.05936136055
-0.05944871518
-0.05953606871
-0.0596234226
-0.05971077836
-0.05979813759
-0.05988550197
-0.05997287324
-0.06006025326
-0.06014764397
-0.06023504739
-0.06032246566
-0.06040990101
-0.06049735579
-0.06058483245
-0.06067233357
-0.06075986186
-0.06084742017
-0.06093501147
-0.06102263891
-0.06111030579
-0.06119801556
-0.06128577185
-0.06137357846
-0.06146143939
-0.06154935886
-0.06163734126
-0.06172539124
-0.06181351367
-0.06190171369
-0.06198999669
-0.06207836831
-0.06216683449
-0.06225540149
-0.06234407585
-0.06243286444
-0.0625217745
-0.06261081363
-0.06269998982
-0.06278931146
-0.0628787874
-0.06296842692
-0.06305823977
-0.06314823621
-0.06323842704
-0.06332882357
-0.06341943774
-0.06351028206
-0.0636013697
-0.06369271454
-0.06378433112
-0.06387623478
-0.0639684416
-0.06406096852
-0.0641538333
-0.06424705462
-0.06434065209
-0.06443464632
-0.06452905901
-0.064623913
-0.06471923231
-0.06481504228
-0.06491136953
-0.0650082421
-0.06510568947
-0.06520374269
-0.06530243442
-0.06540179903
-0.06550187271
-0.06560269355
-0.06570430166
-0.06580673928
-0.06591005089
-0.06601428334
-0.06611948602
-0.06622571096
-0.066333013
-0.06644144997
-0.06655108289
-0.06666197614
-0.06677419766
-0.06688781924
-0.06700291677
-0.06711957052
-0.0672378654
-0.06735789287
-0.06747975466
-0.06760356135
-0.06772942855
-0.06785749856
-0.06798787654
-0.06812061007
-0.06825578339
-0.06839351028
-0.06853391826
-0.06867716583
-0.06882342506
-0.0689728646
-0.06912565064
-0.06928196097
-0.06944199305
-0.069605959
-0.06977408258
-0.06994659941
-0.07012375851
-0.07030582375
-0.07049307508
-0.07068580971
-0.07088434322
-0.07108901094
-0.07130016949
-0.07151819841
-0.07174350202
-0.07197651142
-0.0722176867
-0.07246751937
-0.07272653505
-0.07299529635
-0.07327440615
-0.07356451125
-0.07386630634
-0.07418053851
-0.07450801227
-0.07484959524
-0.07520622449
-0.07557891377
-0.07596876161
-0.07637696069
-0.07680480837
-0.07725371887
-0.07772523724
-0.07822105553
-0.0787430316
-0.07929321107
-0.0798738531
-0.08048746084
-0.08113681773
-0.0818250309
-0.08255558362
-0.08333239911
-0.08415991918
-0.08504320184
-0.08598804399
-0.08700113791
-0.08809027374
-0.08926460587
-0.0905350107
-0.09191457796
-0.09341930423
-0.09506910254
-0.09688932799
-0.09891318629
-0.1011857448
-0.1037709771
-0.1067620128
-0.1103037507
0.003899338466
0.003369993137
0.002624917083
0.00202346298
0.001548021908
0.001130514595
0.0007523299646
0.0004111909585
9.9981803e-05
-0.000188944771
-0.0004605240192
-0.0007173162324
-0.0009595234133
-0.001188161237
-0.00140574812
-0.001614762875
-0.001817195147
-0.002014198795
-0.002206379645
-0.002394087946
-0.002577492239
-0.002756971846
-0.002933135839
-0.003106500279
-0.003277446366
-0.003446324499
-0.003613469087
-0.003779103611
-0.003943327783
-0.004106139671
-0.00426756971
-0.004427733988
-0.004586769916
-0.004744775038
-0.004901825561
-0.005057996569
-0.005213349825
-0.005367940761
-0.0055217897
-0.005674884614
-0.005827250529
-0.005978954245
-0.006130057516
-0.006280591683
-0.006430574205
-0.006580022892
-0.006728950263
-0.006877391153
-0.007025409072
-0.007173034374
-0.007320252637
-0.007467048635
-0.007613419403
-0.007759366515
-0.00790489172
-0.008049996894
-0.008194684456
-0.00833895706
-0.008482817549
-0.00862627151
-0.008769327068
-0.008911986892
-0.009054246292
-0.009196102368
-0.009337557022
-0.009478612939
-0.009619271774
-0.009759534512
-0.009899401968
-0.01003887496
-0.01017795429
-0.01031664079
-0.01045493521
-0.01059283762
-0.01073034489
-0.01086744787
-0.0110041436
-0.01114044066
-0.01127634955
-0.01141186989
-0.01154699589
-0.01168172196
-0.01181604505
-0.01194996306
-0.0120834725
-0.01221656745
-0.01234923915
-0.01248147543
-0.01261326145
-0.01274458825
-0.01287547027
-0.01300591841
-0.01313592612
-0.01326552232
-0.01339474827
-0.01352360231
-0.01365206346
-0.01378009605
-0.01390760371
-0.01403454225
-0.01416114035
-0.01428759423
-0.01441385406
-0.01453985014
-0.01466555065
-0.01479094379
-0.01491602368
-0.01504078744
-0.01516523453
-0.0152893633
-0.01541317195
-0.01553666017
-0.01565982948
-0.01578268232
-0.0159052214
-0.01602744952
-0.01614936943
-0.01627098312
-0.0163922898
-0.01651328864
-0.01663398428
-0.01675438355
-0.01687449015
-0.01699430684
-0.01711383711
-0.01723308485
-0.01735205377
-0.01747074738
-0.01758916903
-0.01770732196
-0.01782520909
-0.01794283297
-0.01806019598
-0.01817730052
-0.01829414942
-0.01841074592
-0.01852709331
-0.01864319454
-0.01875905246
-0.01887467083
-0.01899005374
-0.01910520494
-0.01922012784
-0.0193348255
-0.01944930008
-0.01956355401
-0.01967759152
-0.01979141781
-0.01990503642
-0.02001844927
-0.02013165817
-0.02024466533
-0.02035747324
-0.02047008442
-0.02058250142
-0.02069472679
-0.02080676303
-0.0209186127
-0.02103027834
-0.02114176248
-0.02125306759
-0.02136419614
-0.02147515062
-0.02158593345
-0.02169654704
-0.02180699376
-0.02191727598
-0.022027396
-0.02213735602
-0.02224715813
-0.02235680425
-0.02246629626
-0.02257563598
-0.02268482513
-0.0227938654
-0.02290275851
-0.02301150629
-0.02312011058
-0.02322857322
-0.02333689594
-0.02344508048
-0.02355312857
-0.02366104195
-0.02376882239
-0.0238764717
-0.02398399169
-0.02409138412
-0.02419865069
-0.02430579297
-0.02441281247
-0.02451971066
-0.02462648897
-0.02473314879
-0.02483969149
-0.02494611837
-0.02505243071
-0.02515862973
-0.02526471663
-0.02537069246
-0.02547655828
-0.02558231517
-0.02568796422
-0.02579350652
-0.02589894319
-0.02600427539
-0.02610950431
-0.02621463101
-0.0263196564
-0.02642458123
-0.02652940615
-0.02663413183
-0.02673875902
-0.02684328849
-0.02694772102
-0.02705205733
-0.02715629817
-0.02726044429
-0.02736449641
-0.02746845522
-0.02757232142
-0.02767609569
-0.02777977869
-0.02788337108
-0.02798687348
-0.0280902865
-0.02819361077
-0.02829684688
-0.0283999954
-0.0285030569
-0.02860603195
-0.02870892111
-0.0288117249
-0.02891444386
-0.02901707852
-0.02911962941
-0.02922209704
-0.0293244819
-0.02942678449
-0.0295290053
-0.02963114477
-0.02973320329
-0.02983518124
-0.029937079
-0.03003889688
-0.03014063523
-0.03024229436
-0.03034387461
-0.03044537626
-0.03054679966
-0.03064814521
-0.0307494133
-0.03085060427
-0.03095171843
-0.03105275606
-0.03115371748
-0.03125460305
-0.0313554131
-0.03145614796
-0.03155680797
-0.03165739346
-0.03175790476
-0.03185834221
-0.03195870622
-0.03205899717
-0.03215921544
-0.03225936137
-0.03235943531
-0.03245943758
-0.03255936849
-0.03265922831
-0.03275901737
-0.03285873594
-0.03295838429
-0.03305796271
-0.03315747146
-0.03325691083
-0.03335628109
-0.03345558249
-0.03355481531
-0.03365397983
-0.03375307633
-0.03385210508
-0.03395106636
-0.03404996049
-0.03414878779
-0.03424754857
-0.03434624316
-0.03444487189
-0.03454343505
-0.03464193285
-0.03474036543
-0.03483873294
-0.03493703554
-0.03503527339
-0.03513344666
-0.03523155559
-0.03532960038
-0.03542758124
-0.03552549837
-0.03562335202
-0.03572114241
-0.03581886975
-0.03591653427
-0.0360141362
-0.03611167577
-0.03620915321
-0.03630656872
-0.03640392254
-0.03650121489
-0.036598446
-0.03669561608
-0.03679272535
-0.03688977403
-0.03698676236
-0.03708369052
-0.03718055875
-0.03727736725
-0.03737411626
-0.03747080597
-0.0375674366
-0.03766400837
-0.03776052149
-0.03785697618
-0.03795337263
-0.03804971108
-0.03814599174
-0.03824221481
-0.03833838051
-0.03843448905
-0.03853054066
-0.03862653556
-0.03872247393
-0.03881835598
-0.03891418189
-0.03900995185
-0.03910566602
-0.03920132453
-0.03929692756
-0.03939247527
-0.03948796781
-0.03958340536
-0.03967878813
-0.03977411633
-0.03986939013
-0.03996460969
-0.04005977522
-0.04015488688
-0.04024994486
-0.04034494934
-0.04043990054
-0.04053479867
-0.04062964392
-0.04072443648
-0.04081917654
-0.04091386429
-0.04100849991
-0.04110308356
-0.04119761542
-0.04129209565
-0.04138652442
-0.04148090188
-0.04157522818
-0.0416695035
-0.04176372802
-0.04185790192
-0.04195202539
-0.04204609864
-0.04214012187
-0.04223409527
-0.04232801903
-0.04242189332
-0.04251571835
-0.04260949427
-0.04270322125
-0.04279689946
-0.04289052908
-0.04298411027
-0.04307764318
-0.04317112799
-0.04326456486
-0.04335795395
-0.04345129542
-0.04354458944
-0.0436378362
-0.04373103585
-0.04382418856
-0.04391729452
-0.04401035392
-0.04410336694
-0.04419633376
-0.04428925455
-0.04438212948
-0.0444749587
-0.04456774233
-0.04466048048
-0.04475317331
-0.04484582095
-0.04493842354
-0.04503098121
-0.04512349412
-0.04521596241
-0.04530838623
-0.04540076569
-0.04549310096
-0.04558539216
-0.04567763941
-0.04576984285
-0.04586200261
-0.04595411884
-0.04604619166
-0.0461382212
-0.04623020762
-0.04632215104
-0.04641405161
-0.04650590947
-0.04659772475
-0.04668949759
-0.04678122814
-0.04687291652
-0.04696456288
-0.04705616735
-0.04714773007
-0.04723925117
-0.04733073078
-0.04742216903
-0.04751356608
-0.04760492204
-0.04769623705
-0.04778751125
-0.04787874476
-0.04796993772
-0.04806109026
-0.0481522025
-0.04824327459
-0.04833430665
-0.0484252988
-0.04851625119
-0.04860716395
-0.04869803719
-0.04878887106
-0.04887966568
-0.04897042119
-0.04906113771
-0.04915181537
-0.04924245428
-0.04933305456
-0.04942361633
-0.04951413969
-0.04960462473
-0.04969507156
-0.0497854803
-0.04987585106
-0.04996618394
-0.05005647909
-0.05014673661
-0.05023695662
-0.05032713923
-0.05041728456
-0.05050739274
-0.05059746389
-0.05068749813
-0.05077749561
-0.05086745645
-0.05095738077
-0.05104726871
-0.05113712039
-0.05122693594
-0.05131671547
-0.05140645912
-0.051496167
-0.05158583923
-0.05167547595
-0.05176507726
-0.05185464328
-0.05194417413
-0.05203366993
-0.0521231308
-0.05221255683
-0.05230194816
-0.05239130491
-0.0524806272
-0.05256991513
-0.05265916883
-0.05274838844
-0.05283757406
-0.05292672583
-0.05301584389
-0.05310492839
-0.05319397946
-0.05328299726
-0.05337198194
-0.05346093364
-0.05354985251
-0.0536387387
-0.05372759235
-0.05381641362
-0.05390520267
-0.05399395963
-0.05408268466
-0.05417137793
-0.0542600396
-0.05434866983
-0.05443726879
-0.05452583665
-0.05461437359
-0.05470287978
-0.05479135541
-0.05487980069
-0.05496821581
-0.05505660098
-0.05514495639
-0.05523328226
-0.0553215788
-0.05540984619
-0.05549808465
-0.0555862944
-0.05567447565
-0.05576262863
-0.05585075358
-0.05593885075
-0.05602692041
-0.05611496281
-0.05620297825
-0.05629096701
-0.05637892939
-0.05646686573
-0.05655477634
-0.05664266154
-0.05673052169
-0.05681835716
-0.0569061683
-0.05699395552
-0.05708171922
-0.05716945983
-0.0572571778
-0.05734487356
-0.0574325476
-0.05752020041
-0.05760783249
-0.05769544435
-0.05778303655
-0.05787060967
-0.05795816432
-0.05804570113
-0.05813322077
-0.05822072396
-0.05830821141
-0.0583956839
-0.05848314223
-0.05857058725
-0.05865801982
-0.05874544087
-0.05883285134
-0.05892025224
-0.05900764462
-0.05909502956
-0.05918240822
-0.05926978179
-0.05935715154
-0.05944451879
-0.05953188491
-0.05961925136
-0.05970661966
-0.05979399141
-0.05988136828
-0.05996875204
-0.06005614453
-0.06014354769
-0.06023096355
-0.06031839425
-0.06040584202
-0.06049330922
-0.06058079829
-0.06066831182
-0.06075585253
-0.06084342326
-0.060931027
-0.06101866688
-0.06110634622
-0.06119406846
-0.06128183725
-0.06136965639
-0.06145752987
-0.06154546193
-0.06163345695
-0.0617215196
-0.06180965475
-0.06189786754
-0.06198616336
-0.06207454787
-0.06216302702
-0.06225160706
-0.06234029454
-0.06242909633
-0.06251801969
-0.06260707223
-0.06269626193
-0.0627855972
-0.0628750869
-0.06296474031
-0.0630545672
-0.06314457784
-0.06323478301
-0.06332519408
-0.06341582295
-0.06350668218
-0.06359778494
-0.0636891451
-0.06378077726
-0.06387269674
-0.06396491967
-0.06405746299
-0.0641503445
-0.06424358288
-0.06433719774
-0.06443120971
-0.06452564049
-0.06462051295
-0.06471585113
-0.06481168039
-0.06490802739
-0.06500492019
-0.06510238829
-0.06520046278
-0.06529917634
-0.06539856338
-0.0654986601
-0.06559950463
-0.06570113712
-0.06580359982
-0.06590693725
-0.0660111963
-0.06611642638
-0.06622267957
-0.06633001072
-0.06643847771
-0.06654814156
-0.06665906668
-0.06677132102
-0.06688497637
-0.0670001086
-0.06711679801
-0.06723512974
-0.06735519472
-0.06747708998
-0.06760091589
-0.0677267697
-0.06785472774
-0.06798490521
-0.06811750872
-0.068252691
-0.06839050794
-0.06853103201
-0.06867438673
-0.06882073485
-0.0689702499
-0.06912310811
-0.06927949358
-0.06943960413
-0.06960365092
-0.0697718572
-0.06994445868
-0.07012170466
-0.07030385916
-0.07049120208
-0.07068403041
-0.07088265946
-0.0710874243
-0.07129868129
-0.07151680972
-0.07174221364
-0.07197532383
-0.07221659995
-0.07246653302
-0.072725648
-0.07299450676
-0.07327371126
-0.07356390721
-0.07386578801
-0.0741800992
-0.07450764345
-0.0748492862
-0.0752059619
-0.07557868117
-0.0759685388
-0.07637672295
-0.0768045256
-0.07725335445
-0.07772474668
-0.07822038478
-0.07874211498
-0.07929196868
-0.07987218754
-0.08048525308
-0.08113392179
-0.08182126705
-0.08255072938
-0.08332617751
-0.08415198294
-0.08503311185
-0.0859752397
-0.08698489546
-0.0880696457
-0.08923833227
-0.09050138367
-0.09187122891
-0.09336285582
-0.09499457373
-0.09678906438
-0.09877482608
-0.1009881054
-0.1034752152
-0.1062943198
-0.1095132496
0.002490152476
0.002456428045
0.00212698085
0.001709777494
0.001319030201
0.0009551636022
0.0006096690368
0.0002855278579
-1.62940066e-05
-0.0002981583891
-0.0005631657026
-0.0008137629863
-0.001051544716
-0.00127787538
-0.001493981583
-0.00170112814
-0.001901637139
-0.002097521365
-0.002289469333
-0.00247768722
-0.002661586889
-0.0028410593
-0.003016863027
-0.003189607483
-0.003359697891
-0.003527608432
-0.003693896299
-0.003858812706
-0.004022347285
-0.004184232009
-0.004344429474
-0.00450323396
-0.004660910644
-0.004817567944
-0.004973273688
-0.005128097803
-0.005282114509
-0.005435418313
-0.005588009237
-0.005739787988
-0.005890801571
-0.006041202227
-0.006191049368
-0.006340333777
-0.006489059319
-0.006637236157
-0.006784825116
-0.00693185404
-0.007078482938
-0.007224793756
-0.007370744515
-0.007516302203
-0.007661457146
-0.007806205355
-0.007950545214
-0.008094476848
-0.008238001281
-0.008381118507
-0.008523824094
-0.008666122708
-0.008808032363
-0.00894955882
-0.009090688615
-0.009231414956
-0.009371742786
-0.009511677053
-0.00965122028
-0.00979037382
-0.009929138674
-0.01006751565
-0.01020550536
-0.01034310809
-0.01048032371
-0.01061715107
-0.01075358688
-0.01088962411
-0.01102525522
-0.01116048397
-0.01129531702
-0.01142975704
-0.01156380138
-0.01169744346
-0.01183068252
-0.01196352115
-0.01209596032
-0.01222799943
-0.01235963893
-0.0124908836
-0.01262175218
-0.01275231129
-0.01288275668
-0.01301341832
-0.01314388306
-0.0132735501
-0.01340254582
-0.0135310524
-0.01365913439
-0.01378681105
-0.01391410504
-0.01404103294
-0.01416759256
-0.01429378508
-0.01441962649
-0.01454512989
-0.01467030068
-0.01479514195
-0.01491965769
-0.01504385451
-0.01516774227
-0.01529132106
-0.01541458779
-0.01553754233
-0.01566018724
-0.01578252583
-0.01590456155
-0.01602629831
-0.01614774124
-0.0162688964
-0.01638975906
-0.01651032268
-0.01663059429
-0.01675058574
-0.01687029907
-0.01698973556
-0.01710889819
-0.01722779047
-0.01734641564
-0.01746477688
-0.0175828774
-0.01770072035
-0.01781830836
-0.01793564352
-0.01805272759
-0.01816956221
-0.01828615048
-0.01840249627
-0.01851860287
-0.01863447207
-0.0187501049
-0.01886550548
-0.0189806786
-0.01909562804
-0.01921035676
-0.01932486747
-0.01943916257
-0.01955324435
-0.01966711681
-0.01978078444
-0.01989424998
-0.02000751513
-0.02012058193
-0.0202334529
-0.02034613073
-0.02045861801
-0.02057091733
-0.02068303119
-0.02079496209
-0.02090671248
-0.02101828482
-0.02112968153
-0.02124090496
-0.02135195746
-0.02146284138
-0.02157355903
-0.02168411269
-0.02179450463
-0.02190473712
-0.0220148124
-0.0221247326
-0.02223449965
-0.02234411527
-0.02245358116
-0.02256289895
-0.02267207023
-0.02278109639
-0.02288997896
-0.02299871982
-0.02310732089
-0.02321578385
-0.02332411022
-0.02343230155
-0.02354035943
-0.02364828542
-0.02375608116
-0.02386374837
-0.02397128887
-0.02407870432
-0.02418599632
-0.02429316633
-0.02440021574
-0.02450714592
-0.0246139582
-0.02472065387
-0.02482723421
-0.02493370047
-0.02504005383
-0.02514629548
-0.02525242648
-0.02535844777
-0.02546436026
-0.02557016492
-0.02567586275
-0.02578145477
-0.02588694204
-0.02599232575
-0.02609760714
-0.02620278738
-0.02630786731
-0.02641284744
-0.02651772828
-0.02662251043
-0.02672719459
-0.02683178151
-0.02693627188
-0.0270406664
-0.02714496575
-0.02724917063
-0.02735328173
-0.02745729971
-0.0275612252
-0.02766505886
-0.02776880132
-0.0278724532
-0.02797601509
-0.02807948757
-0.02818287123
-0.02828616665
-0.02838937437
-0.02849249493
-0.02859552888
-0.02869847675
-0.02880133905
-0.02890411628
-0.02900680898
-0.02910941765
-0.02921194279
-0.02931438488
-0.02941674445
-0.02951902197
-0.02962121788
-0.02972333255
-0.02982536635
-0.0299273196
-0.03002919264
-0.03013098578
-0.03023269933
-0.03033433357
-0.03043588874
-0.03053736521
-0.03063876343
-0.0307400838
-0.03084132666
-0.03094249225
-0.03104358084
-0.03114459275
-0.03124552834
-0.031346388
-0.03144717205
-0.03154788083
-0.03164851463
-0.03174907377
-0.03184955861
-0.03194996958
-0.0320503071
-0.03215057155
-0.03225076327
-0.03235088261
-0.03245092989
-0.0325509054
-0.03265080943
-0.03275064229
-0.03285040427
-0.03295009564
-0.03304971666
-0.03314926763
-0.03324874882
-0.0333481605
-0.03344750294
-0.0335467764
-0.03364598117
-0.03374511752
-0.03384418573
-0.03394318608
-0.03404211889
-0.03414098449
-0.03423978321
-0.03433851543
-0.03443718153
-0.03453578185
-0.03463431657
-0.03473278576
-0.03483118954
-0.03492952802
-0.03502780138
-0.03512600982
-0.03522415355
-0.03532223282
-0.03542024782
-0.03551819879
-0.03561608597
-0.03571390958
-0.03581166986
-0.03590936703
-0.03600700133
-0.03610457299
-0.03620208224
-0.03629952931
-0.03639691442
-0.0364942378
-0.03659149968
-0.03668870029
-0.03678583983
-0.03688291854
-0.03697993665
-0.03707689436
-0.03717379189
-0.03727062948
-0.03736740733
-0.03746412567
-0.0375607847
-0.03765738464
-0.03775392572
-0.03785040815
-0.03794683214
-0.0380431979
-0.03813950567
-0.03823575565
-0.03833194806
-0.03842808312
-0.03852416105
-0.03862018209
-0.03871614644
-0.0388120543
-0.03890790587
-0.03900370132
-0.03909944081
-0.03919512448
-0.03929075247
-0.03938632494
-0.03948184205
-0.03957730398
-0.03967271096
-0.03976806322
-0.03986336094
-0.03995860427
-0.0400537934
-0.0401489285
-0.04024400974
-0.04033903733
-0.04043401148
-0.04052893243
-0.04062380035
-0.04071861545
-0.04081337792
-0.04090808795
-0.04100274572
-0.04109735138
-0.04119190512
-0.0412864071
-0.04138085748
-0.04147525641
-0.04156960404
-0.04166390054
-0.04175814609
-0.04185234087
-0.04194648508
-0.04204057896
-0.0421346227
-0.0422286165
-0.04232256054
-0.04241645502
-0.04251030011
-0.04260409599
-0.04269784282
-0.04279154077
-0.04288519003
-0.04297879073
-0.04307234305
-0.04316584716
-0.04325930322
-0.04335271139
-0.04344607183
-0.04353938472
-0.04363265022
-0.0437258685
-0.04381903973
-0.04391216411
-0.04400524181
-0.04409827304
-0.04419125799
-0.04428419685
-0.04437708978
-0.04446993693
-0.0445627384
-0.04465549429
-0.04474820476
-0.04484086993
-0.04493348996
-0.04502606498
-0.04511859515
-0.04521108063
-0.04530352155
-0.04539591804
-0.04548827025
-0.04558057831
-0.04567284233
-0.04576506245
-0.04585723879
-0.04594937152
-0.04604146075
-0.04613350662
-0.04622550928
-0.04631746886
-0.04640938551
-0.04650125936
-0.04659309055
-0.04668487923
-0.04677662553
-0.0468683296
-0.04695999155
-0.04705161154
-0.04714318971
-0.04723472618
-0.04732622108
-0.04741767455
-0.04750908675
-0.04760045778
-0.04769178779
-0.04778307691
-0.04787432528
-0.04796553303
-0.04805670027
-0.04814782715
-0.04823891381
-0.04832996036
-0.04842096695
-0.04851193369
-0.04860286073
-0.0486937482
-0.04878459622
-0.04887540493
-0.04896617446
-0.04905690495
-0.04914759652
-0.04923824928
-0.04932886336
-0.04941943888
-0.04950997592
-0.04960047457
-0.04969093494
-0.04978135715
-0.04987174129
-0.04996208751
-0.05005239592
-0.05014266665
-0.0502328998
-0.05032309548
-0.05041325382
-0.05050337493
-0.05059345895
-0.05068350599
-0.05077351621
-0.05086348973
-0.05095342669
-0.0510433272
-0.05113319139
-0.0512230194
-0.05131281134
-0.05140256734
-0.05149228751
-0.05158197199
-0.05167162089
-0.05176123434
-0.05185081243
-0.05194035531
-0.05202986308
-0.05211933586
-0.05220877375
-0.05229817689
-0.0523875454
-0.05247687939
-0.05256617896
-0.05265544424
-0.05274467536
-0.05283387243
-0.05292303557
-0.05301216495
-0.0531012607
-0.05319032299
-0.05327935195
-0.05336834773
-0.05345731049
-0.05354624037
-0.05363513751
-0.05372400207
-0.05381283419
-0.05390163403
-0.05399040173
-0.05407913745
-0.05416784135
-0.05425651359
-0.05434515434
-0.05443376376
-0.05452234201
-0.05461088929
-0.05469940576
-0.05478789162
-0.05487634706
-0.05496477229
-0.05505316752
-0.05514153296
-0.05522986882
-0.05531817529