/*--------------------------------*- C++ -*----------------------------------*\
| =========                 |                                                 |
| \\      /  F ield         | OpenFOAM: The Open Source CFD Toolbox           |
|  \\    /   O peration     | Version:  2312                                  |
|   \\  /    A nd           | Website:  www.openfoam.com                      |
|    \\/     M anipulation  |                                                 |
\*---------------------------------------------------------------------------*/
FoamFile
{
    version     2.0;
    format      ascii;
    arch        "LSB;label=32;scalar=64";
    class       surfaceScalarField;
    location    "459";
    object      phi;
}
// * * * * * * * * * * * * * * * * * * * * * * * * * * * * * * * * * * * * * //

dimensions      [0 3 -1 0 0 0 0];

oriented        oriented;

internalField   nonuniform List<scalar> 
125957
(
1.96259108e-06
2.321198362e-09
1.958614217e-06
3.976863007e-09
1.954165228e-06
4.448988923e-09
1.94935241e-06
4.812817539e-09
1.944278966e-06
5.073444058e-09
1.939037842e-06
5.24112459e-09
1.93369685e-06
5.340991837e-09
1.92829606e-06
5.400789514e-09
1.922859972e-06
5.4360877e-09
1.917404765e-06
5.455207215e-09
1.911940847e-06
5.463917922e-09
1.906474743e-06
5.46610407e-09
1.901012477e-06
5.462266306e-09
1.895560072e-06
5.452404945e-09
1.890122379e-06
5.437693117e-09
1.88470345e-06
5.418929188e-09
1.879306471e-06
5.396979052e-09
1.873933879e-06
5.372591183e-09
1.868587501e-06
5.346378252e-09
1.863268775e-06
5.318726511e-09
1.857979097e-06
5.289677643e-09
1.852719936e-06
5.259161441e-09
1.84749269e-06
5.227245789e-09
1.842298641e-06
5.194048916e-09
1.837138997e-06
5.159643879e-09
1.832014858e-06
5.124138635e-09
1.826927107e-06
5.087751862e-09
1.821876381e-06
5.050725414e-09
1.816863151e-06
5.01323025e-09
1.811887849e-06
4.975301466e-09
1.806950963e-06
4.936886482e-09
1.802052989e-06
4.897973873e-09
1.797194363e-06
4.858625928e-09
1.792375456e-06
4.818907049e-09
1.787596588e-06
4.778868443e-09
1.782858021e-06
4.738567041e-09
1.778159965e-06
4.698055233e-09
1.773502565e-06
4.657400145e-09
1.768885912e-06
4.616653372e-09
1.764310105e-06
4.575806405e-09
1.759775268e-06
4.534836977e-09
1.7552815e-06
4.493768858e-09
1.750828841e-06
4.452658463e-09
1.746417298e-06
4.411542832e-09
1.742046859e-06
4.370439428e-09
1.737717498e-06
4.329361185e-09
1.733429197e-06
4.288300973e-09
1.729181946e-06
4.247250959e-09
1.724975698e-06
4.206247715e-09
1.720810353e-06
4.165344593e-09
1.716685787e-06
4.124565977e-09
1.712601869e-06
4.083918637e-09
1.708558459e-06
4.043409991e-09
1.704555412e-06
4.003046617e-09
1.700592579e-06
3.962832876e-09
1.696669808e-06
3.92277181e-09
1.692786942e-06
3.882865829e-09
1.688943826e-06
3.843116159e-09
1.685140305e-06
3.803520348e-09
1.681376231e-06
3.764073946e-09
1.677651435e-06
3.724796177e-09
1.673965732e-06
3.685703028e-09
1.670318941e-06
3.64679059e-09
1.666710887e-06
3.608053999e-09
1.663141396e-06
3.569491297e-09
1.659610294e-06
3.531102078e-09
1.656117408e-06
3.492886175e-09
1.652662565e-06
3.454843123e-09
1.649245593e-06
3.416972204e-09
1.64586632e-06
3.379272557e-09
1.642524577e-06
3.341742567e-09
1.639220198e-06
3.304379632e-09
1.635953019e-06
3.267179035e-09
1.632722891e-06
3.23012808e-09
1.62952968e-06
3.193210314e-09
1.626373234e-06
3.156446089e-09
1.623253348e-06
3.119886111e-09
1.620169816e-06
3.083532532e-09
1.617122456e-06
3.047360018e-09
1.614111096e-06
3.011359261e-09
1.611135567e-06
2.975529175e-09
1.6081957e-06
2.939867554e-09
1.605291325e-06
2.904374145e-09
1.602422274e-06
2.869051243e-09
1.599588369e-06
2.833905668e-09
1.596789418e-06
2.798950288e-09
1.59402521e-06
2.764208641e-09
1.59129548e-06
2.729730076e-09
1.588599859e-06
2.695621038e-09
1.585937729e-06
2.662129938e-09
1.583308373e-06
2.6293554e-09
1.580712953e-06
2.595420332e-09
1.578152216e-06
2.560736745e-09
1.575625066e-06
2.52715025e-09
1.573130858e-06
2.49420773e-09
1.570669024e-06
2.461834127e-09
1.568239016e-06
2.430007826e-09
1.565840334e-06
2.398681931e-09
1.563472641e-06
2.367693602e-09
1.561135784e-06
2.336856311e-09
1.558829472e-06
2.306312519e-09
1.556553215e-06
2.276256444e-09
1.554306568e-06
2.246647284e-09
1.552089125e-06
2.217443138e-09
1.549900496e-06
2.18862942e-09
1.547740297e-06
2.160198413e-09
1.545608155e-06
2.132142592e-09
1.543503697e-06
2.104457794e-09
1.541426554e-06
2.077143097e-09
1.539376356e-06
2.050197431e-09
1.537352739e-06
2.023617493e-09
1.53535534e-06
1.997398508e-09
1.533383803e-06
1.971537155e-09
1.531437773e-06
1.946030211e-09
1.529516898e-06
1.920875233e-09
1.527620828e-06
1.896070057e-09
1.525749213e-06
1.871614855e-09
1.523901701e-06
1.847511215e-09
1.522077944e-06
1.823757349e-09
1.520277612e-06
1.800332171e-09
1.518500377e-06
1.777234764e-09
1.516745912e-06
1.754465363e-09
1.515013889e-06
1.732023089e-09
1.513303984e-06
1.709905054e-09
1.511615874e-06
1.688109218e-09
1.509949241e-06
1.666633274e-09
1.508303766e-06
1.645475072e-09
1.506679134e-06
1.624631938e-09
1.505075032e-06
1.60410197e-09
1.503491149e-06
1.583882926e-09
1.501927177e-06
1.563972744e-09
1.500382808e-06
1.544368642e-09
1.49885774e-06
1.525068054e-09
1.497351672e-06
1.50606744e-09
1.495864309e-06
1.487363394e-09
1.494395356e-06
1.468952678e-09
1.492944523e-06
1.45083305e-09
1.491511522e-06
1.433001388e-09
1.490096068e-06
1.415453777e-09
1.488697881e-06
1.39818667e-09
1.487316685e-06
1.381196797e-09
1.485952203e-06
1.364481431e-09
1.484604167e-06
1.348036625e-09
1.48327231e-06
1.331856476e-09
1.481956372e-06
1.315937744e-09
1.480656087e-06
1.30028499e-09
1.479371188e-06
1.284899825e-09
1.47810141e-06
1.269777433e-09
1.476846498e-06
1.254912365e-09
1.475606197e-06
1.240301026e-09
1.474380257e-06
1.22593974e-09
1.473168432e-06
1.211825075e-09
1.471970479e-06
1.19795336e-09
1.470786157e-06
1.184321503e-09
1.469615231e-06
1.170926108e-09
1.468457467e-06
1.157763969e-09
1.467312635e-06
1.144831571e-09
1.46618051e-06
1.132125892e-09
1.465060866e-06
1.119643589e-09
1.463953484e-06
1.107381472e-09
1.462858148e-06
1.095336038e-09
1.461774644e-06
1.083504244e-09
1.460702761e-06
1.071882742e-09
1.459642293e-06
1.060468336e-09
1.458593036e-06
1.049257546e-09
1.457554788e-06
1.03824737e-09
1.456527354e-06
1.027434558e-09
1.455510538e-06
1.016816002e-09
1.454504149e-06
1.006388733e-09
1.453507999e-06
9.961495071e-10
1.452521904e-06
9.860954597e-10
1.45154568e-06
9.762233947e-10
1.45057915e-06
9.66530235e-10
1.449622138e-06
9.570126e-10
1.44867447e-06
9.476674196e-10
1.447735979e-06
9.384912551e-10
1.446806498e-06
9.294808789e-10
1.445885865e-06
9.206329872e-10
1.44497392e-06
9.119447366e-10
1.444070507e-06
9.034129777e-10
1.443175473e-06
8.950346538e-10
1.442288666e-06
8.868064813e-10
1.441409941e-06
8.787255661e-10
1.440539152e-06
8.707887669e-10
1.439676159e-06
8.629931531e-10
1.438820823e-06
8.553356956e-10
1.437973009e-06
8.478138301e-10
1.437132584e-06
8.40424786e-10
1.436299419e-06
8.331659198e-10
1.435473384e-06
8.260343648e-10
1.434654357e-06
8.190276284e-10
1.433842214e-06
8.121430149e-10
1.433036836e-06
8.053779148e-10
1.432238106e-06
7.987298195e-10
1.43144591e-06
7.921960441e-10
1.430660135e-06
7.857743003e-10
1.429880673e-06
7.794621335e-10
1.429107416e-06
7.732572227e-10
1.428340259e-06
7.671570122e-10
1.4275791e-06
7.611592511e-10
1.426823838e-06
7.552614781e-10
1.426074377e-06
7.494613654e-10
1.425330621e-06
7.437564121e-10
1.424592476e-06
7.381444976e-10
1.423859853e-06
7.326234045e-10
1.423132661e-06
7.271911912e-10
1.422410816e-06
7.218459015e-10
1.42169423e-06
7.16585935e-10
1.42098282e-06
7.114093541e-10
1.420276506e-06
7.063142025e-10
1.419575208e-06
7.012983238e-10
1.418878848e-06
6.96359928e-10
1.418187351e-06
6.914970934e-10
1.417500643e-06
6.867080436e-10
1.416818652e-06
6.819908503e-10
1.416141308e-06
6.773439219e-10
1.415468542e-06
6.727655243e-10
1.414800288e-06
6.682540605e-10
1.414136481e-06
6.638077819e-10
1.413477055e-06
6.594252625e-10
1.41282195e-06
6.551049319e-10
1.412171105e-06
6.508453004e-10
1.41152446e-06
6.466449633e-10
1.410881958e-06
6.425023656e-10
1.410243541e-06
6.384162602e-10
1.409609156e-06
6.343852572e-10
1.408978748e-06
6.30408089e-10
1.408352265e-06
6.264833384e-10
1.407729655e-06
6.22609887e-10
1.407110868e-06
6.187864744e-10
1.406495856e-06
6.150119577e-10
1.405884571e-06
6.112850463e-10
1.405276967e-06
6.076047394e-10
1.404672997e-06
6.039698988e-10
1.404072617e-06
6.003795037e-10
1.403475785e-06
5.968323949e-10
1.402882457e-06
5.933277072e-10
1.402292593e-06
5.898644549e-10
1.401706151e-06
5.864417803e-10
1.401123092e-06
5.830586932e-10
1.400543378e-06
5.79714472e-10
1.399966969e-06
5.764082408e-10
1.39939383e-06
5.731392123e-10
1.398823924e-06
5.699064515e-10
1.398257215e-06
5.667092866e-10
1.397693668e-06
5.635468986e-10
1.397133249e-06
5.604185381e-10
1.396575926e-06
5.573232778e-10
1.396021665e-06
5.542604572e-10
1.395470436e-06
5.512293458e-10
1.394922207e-06
5.482293161e-10
1.394376947e-06
5.452597969e-10
1.393834627e-06
5.423200402e-10
1.393295217e-06
5.39409507e-10
1.39275869e-06
5.365275133e-10
1.392225016e-06
5.336734898e-10
1.39169417e-06
5.308467579e-10
1.391166123e-06
5.280468873e-10
1.390640849e-06
5.252733004e-10
1.390118324e-06
5.225254844e-10
1.389598521e-06
5.198027752e-10
1.389081416e-06
5.171047518e-10
1.388566985e-06
5.144308942e-10
1.388055205e-06
5.117808008e-10
1.387546051e-06
5.091539521e-10
1.387039501e-06
5.065500596e-10
1.386535532e-06
5.039687031e-10
1.386034122e-06
5.01409541e-10
1.38553525e-06
4.988720939e-10
1.385038894e-06
4.963561017e-10
1.384545033e-06
4.938611745e-10
1.384053646e-06
4.913869995e-10
1.383564713e-06
4.889331291e-10
1.383078214e-06
4.864993312e-10
1.382594128e-06
4.840852473e-10
1.382112438e-06
4.816905574e-10
1.381633123e-06
4.793149846e-10
1.381156165e-06
4.769581191e-10
1.380681545e-06
4.746197586e-10
1.380209245e-06
4.722995738e-10
1.379739248e-06
4.699973051e-10
1.379271535e-06
4.677125594e-10
1.37880609e-06
4.654451456e-10
1.378342896e-06
4.631947517e-10
1.377881934e-06
4.609611454e-10
1.37742319e-06
4.587439893e-10
1.376966647e-06
4.565431865e-10
1.376512289e-06
4.54358573e-10
1.376060099e-06
4.521900922e-10
1.375610061e-06
4.500375484e-10
1.37516216e-06
4.479008813e-10
1.37471638e-06
4.457798499e-10
1.374272706e-06
4.436742534e-10
1.373831122e-06
4.415837671e-10
1.373391614e-06
4.395082659e-10
1.372954166e-06
4.374475145e-10
1.372518765e-06
4.354013487e-10
1.372085396e-06
4.33369487e-10
1.371654044e-06
4.313518409e-10
1.371224696e-06
4.293482103e-10
1.370797337e-06
4.273584626e-10
1.370371955e-06
4.253823467e-10
1.369948535e-06
4.234197975e-10
1.369527064e-06
4.214706381e-10
1.36910753e-06
4.19534723e-10
1.368689918e-06
4.176119424e-10
1.368274216e-06
4.157020689e-10
1.367860411e-06
4.13805055e-10
1.36744849e-06
4.119207423e-10
1.367038441e-06
4.100490334e-10
1.366630251e-06
4.081897147e-10
1.366223908e-06
4.063427486e-10
1.3658194e-06
4.045079882e-10
1.365416715e-06
4.026853461e-10
1.36501584e-06
4.008746203e-10
1.364616765e-06
3.990757809e-10
1.364219476e-06
3.972886904e-10
1.363823963e-06
3.955132693e-10
1.363430213e-06
3.937493249e-10
1.363038216e-06
3.919968333e-10
1.362647961e-06
3.902556644e-10
1.362259435e-06
3.885257442e-10
1.361872628e-06
3.868068877e-10
1.361487529e-06
3.850990751e-10
1.361104127e-06
3.83402182e-10
1.360722411e-06
3.817161397e-10
1.36034237e-06
3.800407709e-10
1.359963994e-06
3.783760625e-10
1.359587272e-06
3.767219017e-10
1.359212194e-06
3.750782062e-10
1.358838749e-06
3.734449296e-10
1.358466927e-06
3.718219256e-10
1.358096718e-06
3.702092134e-10
1.357728111e-06
3.686067132e-10
1.357361097e-06
3.67014394e-10
1.356995664e-06
3.654321095e-10
1.356631805e-06
3.638598572e-10
1.356269507e-06
3.622975221e-10
1.355908762e-06
3.607450279e-10
1.35554956e-06
3.592021873e-10
1.355191891e-06
3.576689743e-10
1.354835746e-06
3.561452851e-10
1.354481115e-06
3.546310821e-10
1.354127988e-06
3.531262276e-10
1.353776358e-06
3.516307263e-10
1.353426213e-06
3.501444743e-10
1.353077546e-06
3.48667407e-10
1.352730346e-06
3.471993556e-10
1.352384606e-06
3.457403071e-10
1.352040316e-06
3.442901665e-10
1.351697467e-06
3.428488974e-10
1.351356051e-06
3.414163682e-10
1.351016058e-06
3.399925941e-10
1.350677481e-06
3.385774979e-10
1.350340309e-06
3.371710512e-10
1.350004536e-06
3.357731281e-10
1.349670153e-06
3.343837445e-10
1.34933715e-06
3.330028233e-10
1.349005519e-06
3.316303064e-10
1.348675253e-06
3.302661555e-10
1.348346343e-06
3.289102301e-10
1.348018781e-06
3.275625209e-10
1.347692558e-06
3.262229213e-10
1.347367666e-06
3.248913681e-10
1.347044099e-06
3.235677089e-10
1.346721847e-06
3.222519408e-10
1.346400903e-06
3.209439847e-10
1.346081259e-06
3.196438147e-10
1.345762907e-06
3.183513148e-10
1.345445841e-06
3.170665038e-10
1.345130052e-06
3.157893134e-10
1.344815532e-06
3.145197186e-10
1.344502274e-06
3.132576022e-10
1.344190271e-06
3.120029788e-10
1.343879516e-06
3.107557764e-10
1.34357e-06
3.095159662e-10
1.343261716e-06
3.082834284e-10
1.342954658e-06
3.070581735e-10
1.342648818e-06
3.058401268e-10
1.342344189e-06
3.046292559e-10
1.342040763e-06
3.034254388e-10
1.341738534e-06
3.022286808e-10
1.341437496e-06
3.010389029e-10
1.34113764e-06
2.998560672e-10
1.340838959e-06
2.986800472e-10
1.340541449e-06
2.97510843e-10
1.3402451e-06
2.963483753e-10
1.339949908e-06
2.951925897e-10
1.339655864e-06
2.940434642e-10
1.339362963e-06
2.929009064e-10
1.339071198e-06
2.917649626e-10
1.338780563e-06
2.906356033e-10
1.33849105e-06
2.895128288e-10
1.338202653e-06
2.883965367e-10
1.337915367e-06
2.872867332e-10
1.337629183e-06
2.861833415e-10
1.337344097e-06
2.850863264e-10
1.337060101e-06
2.839955731e-10
1.33677719e-06
2.829110906e-10
1.336495357e-06
2.818328156e-10
1.336214597e-06
2.807607293e-10
1.335934902e-06
2.796947351e-10
1.335656267e-06
2.786348556e-10
1.335378686e-06
2.775810337e-10
1.335102153e-06
2.765332464e-10
1.334826661e-06
2.754913862e-10
1.334552206e-06
2.744554609e-10
1.334278781e-06
2.734254039e-10
1.334006379e-06
2.724011887e-10
1.333734997e-06
2.713827105e-10
1.333464627e-06
2.703699809e-10
1.333195264e-06
2.693629386e-10
1.332926902e-06
2.683615406e-10
1.332659536e-06
2.673657653e-10
1.332393161e-06
2.663755139e-10
1.33212777e-06
2.653908013e-10
1.331863359e-06
2.644115701e-10
1.331599921e-06
2.634378006e-10
1.331337451e-06
2.62469397e-10
1.331075945e-06
2.61506375e-10
1.330815396e-06
2.605486789e-10
1.3305558e-06
2.595962905e-10
1.330297151e-06
2.586491161e-10
1.330039444e-06
2.577071719e-10
1.329782673e-06
2.567704038e-10
1.329526834e-06
2.558387942e-10
1.329271922e-06
2.549122511e-10
1.329017931e-06
2.539907908e-10
1.328764857e-06
2.530743602e-10
1.328512694e-06
2.521629419e-10
1.328261438e-06
2.512564456e-10
1.328011083e-06
2.503548873e-10
1.327761625e-06
2.494582147e-10
1.327513058e-06
2.485664108e-10
1.327265379e-06
2.476793863e-10
1.327018582e-06
2.467971572e-10
1.326772662e-06
2.459196722e-10
1.326527615e-06
2.450469149e-10
1.326283436e-06
2.44178799e-10
1.326040121e-06
2.433153423e-10
1.325797664e-06
2.424564983e-10
1.325556062e-06
2.416022384e-10
1.32531531e-06
2.407525554e-10
1.325075402e-06
2.399073754e-10
1.324836335e-06
2.390667283e-10
1.324598105e-06
2.382305789e-10
1.324360706e-06
2.37398923e-10
1.324124134e-06
2.365716812e-10
1.323888385e-06
2.357488665e-10
1.323653455e-06
2.349304209e-10
1.323419339e-06
2.341163175e-10
1.323186032e-06
2.333064652e-10
1.322953531e-06
2.325008788e-10
1.322721832e-06
2.316995143e-10
1.322490929e-06
2.309023608e-10
1.32226082e-06
2.301093372e-10
1.3220315e-06
2.293204552e-10
1.321802964e-06
2.285356605e-10
1.321575209e-06
2.277549301e-10
1.321348231e-06
2.269781775e-10
1.321122025e-06
2.26205417e-10
1.320896589e-06
2.254366046e-10
1.320671917e-06
2.246717305e-10
1.320448006e-06
2.2391072e-10
1.320224853e-06
2.23153594e-10
1.320002452e-06
2.224003124e-10
1.319780802e-06
2.216508497e-10
1.319559896e-06
2.209051971e-10
1.319339733e-06
2.201632817e-10
1.319120308e-06
2.194251238e-10
1.318901617e-06
2.186906835e-10
1.318683657e-06
2.179599521e-10
1.318466424e-06
2.172328575e-10
1.318249915e-06
2.165094199e-10
1.318034125e-06
2.157896004e-10
1.317819052e-06
2.15073391e-10
1.317604691e-06
2.14360721e-10
1.31739104e-06
2.136516103e-10
1.317178094e-06
2.129460195e-10
1.31696585e-06
2.122439375e-10
1.316754304e-06
2.115452893e-10
1.316543454e-06
2.10850086e-10
1.316333296e-06
2.101582777e-10
1.316123826e-06
2.094698408e-10
1.315915042e-06
2.087846898e-10
1.315706939e-06
2.081028285e-10
1.315499515e-06
2.074242083e-10
1.315292766e-06
2.067488149e-10
1.315086689e-06
2.060765777e-10
1.314881282e-06
2.054075151e-10
1.31467654e-06
2.047415901e-10
1.314472461e-06
2.040787941e-10
1.314269042e-06
2.034190589e-10
1.31406628e-06
2.027624016e-10
1.313864171e-06
2.02108783e-10
1.313662713e-06
2.014581762e-10
1.313461902e-06
2.008105684e-10
1.313261736e-06
2.001658875e-10
1.313062212e-06
1.995241452e-10
1.312863327e-06
1.988852976e-10
1.312665077e-06
1.982493274e-10
1.312467461e-06
1.976161588e-10
1.312270476e-06
1.969857983e-10
1.312074117e-06
1.963581977e-10
1.311878384e-06
1.957333358e-10
1.311683273e-06
1.951111345e-10
1.311488781e-06
1.944915996e-10
1.311294907e-06
1.938746861e-10
1.311101646e-06
1.932603808e-10
1.310908998e-06
1.926486197e-10
1.310716958e-06
1.920394241e-10
1.310525525e-06
1.914327634e-10
1.310334697e-06
1.908286285e-10
1.31014447e-06
1.902269471e-10
1.309954842e-06
1.896277203e-10
1.309765811e-06
1.89030894e-10
1.309577375e-06
1.884364391e-10
1.30938953e-06
1.878442704e-10
1.309202276e-06
1.872543816e-10
1.309015609e-06
1.866667141e-10
1.308829528e-06
1.860812351e-10
1.30864403e-06
1.854978568e-10
1.308459114e-06
1.849165693e-10
1.308274776e-06
1.843373112e-10
1.308091016e-06
1.837600323e-10
1.307907832e-06
1.831846955e-10
1.30772522e-06
1.826112101e-10
1.307543181e-06
1.820395624e-10
1.307361711e-06
1.814696887e-10
1.30718081e-06
1.809015513e-10
1.307000475e-06
1.803350591e-10
1.306820704e-06
1.797701961e-10
1.306641497e-06
1.79206894e-10
1.306462852e-06
1.786451054e-10
1.306284768e-06
1.780847257e-10
1.306107242e-06
1.77525721e-10
1.305930274e-06
1.769680053e-10
1.305753862e-06
1.764115151e-10
1.305578006e-06
1.758561325e-10
1.305402704e-06
1.75301812e-10
1.305227956e-06
1.747484572e-10
1.30505376e-06
1.741959937e-10
1.304880116e-06
1.736442927e-10
1.304707022e-06
1.730932956e-10
1.304534479e-06
1.725428926e-10
1.304362486e-06
1.719929942e-10
1.304191043e-06
1.714434562e-10
1.304020149e-06
1.708942029e-10
1.303849804e-06
1.703451066e-10
1.303680008e-06
1.697960462e-10
1.303510761e-06
1.692469075e-10
1.303342063e-06
1.686975219e-10
1.303173915e-06
1.681477859e-10
1.303006318e-06
1.675975438e-10
1.302839271e-06
1.670466572e-10
1.302672776e-06
1.664949319e-10
1.302506834e-06
1.65942237e-10
1.302341446e-06
1.653883888e-10
1.302176612e-06
1.648332185e-10
1.302012336e-06
1.642765011e-10
1.301848618e-06
1.637180721e-10
1.30168546e-06
1.631577127e-10
1.301522865e-06
1.625952177e-10
1.301360835e-06
1.620303237e-10
1.301199372e-06
1.614628251e-10
1.301038479e-06
1.608924608e-10
1.30087816e-06
1.603189799e-10
1.300718418e-06
1.597420721e-10
1.300559257e-06
1.591614813e-10
1.30040068e-06
1.585768937e-10
1.300242692e-06
1.579880028e-10
1.300085297e-06
1.573944408e-10
1.299928501e-06
1.5679589e-10
1.29977231e-06
1.561919723e-10
1.299616727e-06
1.555823139e-10
1.299461761e-06
1.549664764e-10
1.299307417e-06
1.54344067e-10
1.299153702e-06
1.537146295e-10
1.299000624e-06
1.530776958e-10
1.298848192e-06
1.524327854e-10
1.298696412e-06
1.517793492e-10
1.298545295e-06
1.511168768e-10
1.298394851e-06
1.504447889e-10
1.298245088e-06
1.497624993e-10
1.298096019e-06
1.490693482e-10
1.297947654e-06
1.483647071e-10
1.297800006e-06
1.476478735e-10
1.297653088e-06
1.469181307e-10
1.297506913e-06
1.461746819e-10
1.297361496e-06
1.454167535e-10
1.297216853e-06
1.446434912e-10
1.297072999e-06
1.43854018e-10
1.296929952e-06
1.430473706e-10
1.296787729e-06
1.422225985e-10
1.29664635e-06
1.413786625e-10
1.296505836e-06
1.405144906e-10
1.296366207e-06
1.396289138e-10
1.296227486e-06
1.387207638e-10
1.296089697e-06
1.377887719e-10
1.295952866e-06
1.368316231e-10
1.295817018e-06
1.358478933e-10
1.295682182e-06
1.348361427e-10
1.295548387e-06
1.337948171e-10
1.295415664e-06
1.327222993e-10
1.295284048e-06
1.316168479e-10
1.295153571e-06
1.304766873e-10
1.295024271e-06
1.292999131e-10
1.294896186e-06
1.280845345e-10
1.294769358e-06
1.268284748e-10
1.294643828e-06
1.255295255e-10
1.294519643e-06
1.241854371e-10
1.294396849e-06
1.22793827e-10
1.294275497e-06
1.213522164e-10
1.294155639e-06
1.198579504e-10
1.294037331e-06
1.183082536e-10
1.293920631e-06
1.167001271e-10
1.2938056e-06
1.150303995e-10
1.293692304e-06
1.132956923e-10
1.293580812e-06
1.114925118e-10
1.293471195e-06
1.09617165e-10
1.293363529e-06
1.076657895e-10
1.293257895e-06
1.056342887e-10
1.293154376e-06
1.035183938e-10
1.293053063e-06
1.013135758e-10
1.292954048e-06
9.901507432e-11
1.29285743e-06
9.66178392e-11
1.292763313e-06
9.41165837e-11
1.292671808e-06
9.150569916e-11
1.292583028e-06
8.877927598e-11
1.292497097e-06
8.593104481e-11
1.292414143e-06
8.295441665e-11
1.2923343e-06
7.984239761e-11
1.292257713e-06
7.658759117e-11
1.292184531e-06
7.318216734e-11
1.292114913e-06
6.961780159e-11
1.292049027e-06
6.588568578e-11
1.291987051e-06
6.197643123e-11
1.291929171e-06
5.788004019e-11
1.291875585e-06
5.358581083e-11
1.291826503e-06
4.908229538e-11
1.291782145e-06
4.435717702e-11
1.291742748e-06
3.939724611e-11
1.291708559e-06
3.418874215e-11
1.291679845e-06
2.871488001e-11
1.291656899e-06
2.294598477e-11
1.291640069e-06
1.682962675e-11
1.291629793e-06
1.027636538e-11
1.291626747e-06
3.045828004e-12
1.291631747e-06
-5.000445744e-12
1.291645368e-06
-1.362109701e-11
1.291667997e-06
-2.262906517e-11
1.291700051e-06
-3.205326377e-11
1.291741956e-06
-4.190591556e-11
1.291794151e-06
-5.219432289e-11
1.291857108e-06
-6.295705145e-11
1.291931351e-06
-7.424270696e-11
1.292017445e-06
-8.609417884e-11
1.292115992e-06
-9.854734227e-11
1.292227631e-06
-1.116393045e-10
1.29235304e-06
-1.254086428e-10
1.292492936e-06
-1.398959342e-10
1.29264808e-06
-1.551444482e-10
1.292819281e-06
-1.71200533e-10
1.293007395e-06
-1.881138662e-10
1.293213333e-06
-2.059379139e-10
1.293438063e-06
-2.247301366e-10
1.293682615e-06
-2.445524077e-10
1.293948086e-06
-2.654712794e-10
1.294235645e-06
-2.875585833e-10
1.294546537e-06
-3.108917299e-10
1.294882091e-06
-3.355543603e-10
1.295243728e-06
-3.616368071e-10
1.295632965e-06
-3.892370183e-10
1.296051426e-06
-4.184610774e-10
1.29650085e-06
-4.494242189e-10
1.296983102e-06
-4.822516165e-10
1.297500182e-06
-5.170798263e-10
1.298054239e-06
-5.540577296e-10
1.298647588e-06
-5.933481859e-10
1.299282717e-06
-6.351294423e-10
1.299962314e-06
-6.795974771e-10
1.300689282e-06
-7.269677731e-10
1.30146676e-06
-7.774781352e-10
1.302298152e-06
-8.313913233e-10
1.303187151e-06
-8.88999082e-10
1.304137776e-06
-9.506256345e-10
1.305154409e-06
-1.016632738e-09
1.306241835e-06
-1.087425372e-09
1.307405293e-06
-1.163458078e-09
1.308650536e-06
-1.245243833e-09
1.309983899e-06
-1.333363011e-09
1.311412375e-06
-1.428475704e-09
1.312943711e-06
-1.531335592e-09
1.314586519e-06
-1.64280885e-09
1.316350415e-06
-1.763895344e-09
1.318246172e-06
-1.895757226e-09
1.320285926e-06
-2.039753631e-09
1.322483413e-06
-2.197487739e-09
1.324854278e-06
-2.370864912e-09
1.327416451e-06
-2.562172272e-09
1.330190634e-06
-2.774183475e-09
1.33320094e-06
-3.010305684e-09
1.336475721e-06
-3.274780829e-09
1.340048699e-06
-3.572978179e-09
1.343960522e-06
-3.911822674e-09
1.348260974e-06
-4.30045241e-09
1.353012225e-06
-4.751251156e-09
1.358293782e-06
-5.281556923e-09
1.364210394e-06
-5.916612469e-09
1.37090535e-06
-6.694955705e-09
1.378584163e-06
-7.678813176e-09
1.387559925e-06
-8.975762653e-09
1.398353878e-06
-1.079395252e-08
-1.344818474e-08
1.411802062e-06
1.965774479e-06
1.458997297e-09
1.966674512e-06
3.076829685e-09
1.967139901e-06
3.983599823e-09
1.967377462e-06
4.575257081e-09
1.967430943e-06
5.01996346e-09
1.967320207e-06
5.351860286e-09
1.967070458e-06
5.590740919e-09
1.966707259e-06
5.763988679e-09
1.966247456e-06
5.895890197e-09
1.965701889e-06
6.000774018e-09
1.965078882e-06
6.086924984e-09
1.964384297e-06
6.160689438e-09
1.963624892e-06
6.221671196e-09
1.962806664e-06
6.270633081e-09
1.961934694e-06
6.309662579e-09
1.961014312e-06
6.339311367e-09
1.960049639e-06
6.361652108e-09
1.959043786e-06
6.378444801e-09
1.95799909e-06
6.391073595e-09
1.956917315e-06
6.40050154e-09
1.955800596e-06
6.406396489e-09
1.954651283e-06
6.408474876e-09
1.95347141e-06
6.407118598e-09
1.952262838e-06
6.402621402e-09
1.951027378e-06
6.395103687e-09
1.949766729e-06
6.384787658e-09
1.948482297e-06
6.37218397e-09
1.947175237e-06
6.357785467e-09
1.945846491e-06
6.34197549e-09
1.944497075e-06
6.324717658e-09
1.94312811e-06
6.305851198e-09
1.941740696e-06
6.28538845e-09
1.940335833e-06
6.263488382e-09
1.938914484e-06
6.24025599e-09
1.937477578e-06
6.215774615e-09
1.936025983e-06
6.190162725e-09
1.934560532e-06
6.163505946e-09
1.933081955e-06
6.135977476e-09
1.931590908e-06
6.107700333e-09
1.930088119e-06
6.078595174e-09
1.928574348e-06
6.048607375e-09
1.927050305e-06
6.01781239e-09
1.925516625e-06
5.986337907e-09
1.923973915e-06
5.954253757e-09
1.922422754e-06
5.921600436e-09
1.92086369e-06
5.888425028e-09
1.919297309e-06
5.854681573e-09
1.917724223e-06
5.820336909e-09
1.916144936e-06
5.785535168e-09
1.914559866e-06
5.750414721e-09
1.91296943e-06
5.715001921e-09
1.911374037e-06
5.679310938e-09
1.909774082e-06
5.643365004e-09
1.908169944e-06
5.607184666e-09
1.90656199e-06
5.570787591e-09
1.904950571e-06
5.53419025e-09
1.903336028e-06
5.497408956e-09
1.901718686e-06
5.460457754e-09
1.900098865e-06
5.423341892e-09
1.898476866e-06
5.386073018e-09
1.896852962e-06
5.348699963e-09
1.895227409e-06
5.311255982e-09
1.893600463e-06
5.273736909e-09
1.891972374e-06
5.236142394e-09
1.890343383e-06
5.19848235e-09
1.888713717e-06
5.160767822e-09
1.887083594e-06
5.123009261e-09
1.885453221e-06
5.085216224e-09
1.883822796e-06
5.047397478e-09
1.882192507e-06
5.009561233e-09
1.880562536e-06
4.971714372e-09
1.878933053e-06
4.933862555e-09
1.877304222e-06
4.896010073e-09
1.875676193e-06
4.858156976e-09
1.874049098e-06
4.820305009e-09
1.872423075e-06
4.782468943e-09
1.870798269e-06
4.744691742e-09
1.86917482e-06
4.70698247e-09
1.867552838e-06
4.669341558e-09
1.865932429e-06
4.631768263e-09
1.864313692e-06
4.594266628e-09
1.862696723e-06
4.556835667e-09
1.861081617e-06
4.519480413e-09
1.859468457e-06
4.482211203e-09
1.857857318e-06
4.445045029e-09
1.856248261e-06
4.408006961e-09
1.854641334e-06
4.371135719e-09
1.853036565e-06
4.334498818e-09
1.851433974e-06
4.298212204e-09
1.849833607e-06
4.262496626e-09
1.848235636e-06
4.227326657e-09
1.846640382e-06
4.190674632e-09
1.845048142e-06
4.15297632e-09
1.843459103e-06
4.116189258e-09
1.8418734e-06
4.079911438e-09
1.840291159e-06
4.044074501e-09
1.838712468e-06
4.008698964e-09
1.837137293e-06
3.973856638e-09
1.835565803e-06
3.939184024e-09
1.8339987e-06
3.903959416e-09
1.832436365e-06
3.868647758e-09
1.830878731e-06
3.833890425e-09
1.829325861e-06
3.799516591e-09
1.827777825e-06
3.765479475e-09
1.8262347e-06
3.731754325e-09
1.824696578e-06
3.698320464e-09
1.823163559e-06
3.665161522e-09
1.821635745e-06
3.632271461e-09
1.820113232e-06
3.599656215e-09
1.818596113e-06
3.567316981e-09
1.81708448e-06
3.535250729e-09
1.815578425e-06
3.503452929e-09
1.81407804e-06
3.471922757e-09
1.81258341e-06
3.440659795e-09
1.81109462e-06
3.409664994e-09
1.80961175e-06
3.378939875e-09
1.808134874e-06
3.348490835e-09
1.806664058e-06
3.318327627e-09
1.80519937e-06
3.28844534e-09
1.803740887e-06
3.258814766e-09
1.80228868e-06
3.229441715e-09
1.800842809e-06
3.200336403e-09
1.799403333e-06
3.171499949e-09
1.797970307e-06
3.142931066e-09
1.796543785e-06
3.114631039e-09
1.795123817e-06
3.086600611e-09
1.793710452e-06
3.058840725e-09
1.792303732e-06
3.031351346e-09
1.7909037e-06
3.004133959e-09
1.789510394e-06
2.97718949e-09
1.788123847e-06
2.950519151e-09
1.786744093e-06
2.924122626e-09
1.785371162e-06
2.897999859e-09
1.784005081e-06
2.872148365e-09
1.782645878e-06
2.846566147e-09
1.781293579e-06
2.821251995e-09
1.779948205e-06
2.79620678e-09
1.778609777e-06
2.771429047e-09
1.777278316e-06
2.74691468e-09
1.775953841e-06
2.72266201e-09
1.774636368e-06
2.698670026e-09
1.77332591e-06
2.674938731e-09
1.772022481e-06
2.651466251e-09
1.770726087e-06
2.628250184e-09
1.769436737e-06
2.605287915e-09
1.768154438e-06
2.58258344e-09
1.766879199e-06
2.560139345e-09
1.76561102e-06
2.537956222e-09
1.7643499e-06
2.516032017e-09
1.763095837e-06
2.494364654e-09
1.761848825e-06
2.472951277e-09
1.760608861e-06
2.451789739e-09
1.759375937e-06
2.430877433e-09
1.758150045e-06
2.410212863e-09
1.756931177e-06
2.38979386e-09
1.755719323e-06
2.369618617e-09
1.75451447e-06
2.349684672e-09
1.753316605e-06
2.329990565e-09
1.752125714e-06
2.310534129e-09
1.750941782e-06
2.291313498e-09
1.749764792e-06
2.272326128e-09
1.748594726e-06
2.253570417e-09
1.747431565e-06
2.235044071e-09
1.746275288e-06
2.216745089e-09
1.745125875e-06
2.198670838e-09
1.743983303e-06
2.180819656e-09
1.742847548e-06
2.16318931e-09
1.741718586e-06
2.145777849e-09
1.740596391e-06
2.128583591e-09
1.739480936e-06
2.111604226e-09
1.738372194e-06
2.094838167e-09
1.737270134e-06
2.078283068e-09
1.736174727e-06
2.061936834e-09
1.735085943e-06
2.045796703e-09
1.73400375e-06
2.029860471e-09
1.732928116e-06
2.014124997e-09
1.73185901e-06
1.998587675e-09
1.730796397e-06
1.98324573e-09
1.729740244e-06
1.968097265e-09
1.728690518e-06
1.953139594e-09
1.727647182e-06
1.938370197e-09
1.726610203e-06
1.923786064e-09
1.725579543e-06
1.909384935e-09
1.724555168e-06
1.89516388e-09
1.723537041e-06
1.881120421e-09
1.722525125e-06
1.867251844e-09
1.721519382e-06
1.853556376e-09
1.720519775e-06
1.840031677e-09
1.719526266e-06
1.826675615e-09
1.718538814e-06
1.813485505e-09
1.717557383e-06
1.800459424e-09
1.716581931e-06
1.78759491e-09
1.715612419e-06
1.774889636e-09
1.714648807e-06
1.762341419e-09
1.713691056e-06
1.749947624e-09
1.712739124e-06
1.73770644e-09
1.71179297e-06
1.725615612e-09
1.710852554e-06
1.713673113e-09
1.709917835e-06