/*--------------------------------*- C++ -*----------------------------------*\
| =========                 |                                                 |
| \\      /  F ield         | OpenFOAM: The Open Source CFD Toolbox           |
|  \\    /   O peration     | Version:  2312                                  |
|   \\  /    A nd           | Website:  www.openfoam.com                      |
|    \\/     M anipulation  |                                                 |
\*---------------------------------------------------------------------------*/
FoamFile
{
    version     2.0;
    format      ascii;
    arch        "LSB;label=32;scalar=64";
    class       volVectorField;
    location    "459";
    object      U;
}
// * * * * * * * * * * * * * * * * * * * * * * * * * * * * * * * * * * * * * //

dimensions      [0 1 -1 0 0 0 0];

internalField   nonuniform List<vector> 
63546
(
(0.9991792915 0.000351114533 0)
(0.9977839648 0.001244077734 0)
(0.9957982901 0.001733174431 0)
(0.9933975687 0.002047336703 0)
(0.9908283303 0.002260812876 0)
(0.988183703 0.002403932297 0)
(0.985485544 0.002498269155 0)
(0.9827484502 0.002559376061 0)
(0.9799873023 0.002597926025 0)
(0.977213236 0.00262103434 0)
(0.9744331053 0.002633898339 0)
(0.9716508431 0.0026402553 0)
(0.9688692331 0.002641727368 0)
(0.9660911125 0.002638714245 0)
(0.9633192773 0.002631870363 0)
(0.9605560769 0.002621836152 0)
(0.9578033644 0.002609287924 0)
(0.9550625541 0.002594784404 0)
(0.952334706 0.002578701447 0)
(0.9496206217 0.002561263817 0)
(0.9469209872 0.0025425514 0)
(0.9442365061 0.002522621634 0)
(0.94156791 0.002501599788 0)
(0.9389158947 0.002479633054 0)
(0.9362810967 0.002456851742 0)
(0.9336641018 0.002433377005 0)
(0.9310654206 0.002409334146 0)
(0.9284854486 0.002384837016 0)
(0.9259244665 0.002359977586 0)
(0.9233826908 0.002334811878 0)
(0.9208603408 0.002309382163 0)
(0.9183576628 0.002283740614 0)
(0.9158749007 0.002257943814 0)
(0.9134122658 0.002232037221 0)
(0.9109699341 0.002206056591 0)
(0.908548053 0.002180035455 0)
(0.9061467429 0.002154004881 0)
(0.9037660949 0.002127996902 0)
(0.9014061682 0.002102035496 0)
(0.8990670068 0.002076127368 0)
(0.8967486627 0.002050277417 0)
(0.8944511933 0.002024499491 0)
(0.8921746396 0.001998811119 0)
(0.8899190153 0.001973226519 0)
(0.8876843167 0.001947757169 0)
(0.8854705322 0.001922413413 0)
(0.8832776491 0.001897200458 0)
(0.8811056596 0.001872126156 0)
(0.8789545516 0.001847211512 0)
(0.8768242913 0.001822476959 0)
(0.874714821 0.001797929492 0)
(0.8726260727 0.001773568772 0)
(0.8705579759 0.001749393503 0)
(0.8685104585 0.001725402612 0)
(0.8664834457 0.001701595082 0)
(0.8644768605 0.00167796993 0)
(0.8624906245 0.0016545262 0)
(0.8605246583 0.001631262698 0)
(0.8585788827 0.001608177537 0)
(0.8566532202 0.00158526844 0)
(0.8547475909 0.001562532798 0)
(0.8528619061 0.001539967775 0)
(0.8509960717 0.001517570271 0)
(0.8491499957 0.00149533779 0)
(0.8473235888 0.001473269144 0)
(0.8455167632 0.001451363726 0)
(0.843729431 0.001429620848 0)
(0.8419615039 0.001408039544 0)
(0.8402128943 0.001386618571 0)
(0.8384835145 0.001365356395 0)
(0.8367732779 0.001344251149 0)
(0.8350820986 0.001323300477 0)
(0.8334098925 0.001302501092 0)
(0.8317565758 0.001281847244 0)
(0.8301220699 0.001261330033 0)
(0.8285063433 0.001240940481 0)
(0.8269092833 0.001220655294 0)
(0.8253307484 0.001200486258 0)
(0.8237706725 0.001180432404 0)
(0.8222289669 0.001160492916 0)
(0.8207055402 0.001140668689 0)
(0.8192003048 0.001120960854 0)
(0.8177131752 0.001101370821 0)
(0.8162440661 0.001081900674 0)
(0.8147928895 0.001062553376 0)
(0.8133595524 0.001043333384 0)
(0.8119439533 0.001024248513 0)
(0.8105459734 0.001005314371 0)
(0.8091654577 0.0009865658401 0)
(0.8078021656 0.0009680876252 0)
(0.8064557456 0.0009500761353 0)
(0.8051262264 0.0009328329804 0)
(0.8038140713 0.0009163582863 0)
(0.8025193834 0.0009003580023 0)
(0.8012417325 0.0008846342817 0)
(0.799980696 0.0008691231638 0)
(0.79873597 0.0008538094554 0)
(0.7975073016 0.0008386792248 0)
(0.7962944781 0.0008236771459 0)
(0.795097369 0.0008087126903 0)
(0.7939158762 0.0007937765608 0)
(0.792749823 0.0007789364975 0)
(0.7915989657 0.0007642449589 0)
(0.790463071 0.0007497363878 0)
(0.7893419334 0.0007354340323 0)
(0.7882353599 0.0007213529215 0)
(0.7871431598 0.0007075024195 0)
(0.7860651434 0.0006938884766 0)
(0.7850011221 0.000680515041 0)
(0.783950908 0.0006673837025 0)
(0.782914314 0.0006544940781 0)
(0.781891155 0.0006418447501 0)
(0.780881248 0.0006294339276 0)
(0.779884412 0.0006172596594 0)
(0.7789004672 0.0006053199155 0)
(0.7779292353 0.0005936127313 0)
(0.7769705383 0.0005821364153 0)
(0.7760241978 0.0005708896603 0)
(0.7750900352 0.000559870829 0)
(0.7741678767 0.0005490781238 0)
(0.7732575552 0.0005385094733 0)
(0.7723589048 0.0005281628549 0)
(0.7714717592 0.000518035313 0)
(0.7705959526 0.0005081232905 0)
(0.7697313202 0.0004984232057 0)
(0.7688776986 0.0004889316058 0)
(0.7680349255 0.0004796451354 0)
(0.7672028401 0.0004705605318 0)
(0.7663812822 0.0004616746414 0)
(0.7655700933 0.0004529844139 0)
(0.7647691155 0.000444486845 0)
(0.7639781925 0.0004361789073 0)
(0.7631971689 0.0004280575024 0)
(0.7624258912 0.0004201194372 0)
(0.7616642075 0.0004123615436 0)
(0.7609119678 0.0004047807849 0)
(0.7601690234 0.0003973742046 0)
(0.759435227 0.0003901387673 0)
(0.7587104329 0.0003830713159 0)
(0.7579944974 0.0003761689242 0)
(0.7572872787 0.0003694288867 0)
(0.7565886364 0.0003628484736 0)
(0.7558984317 0.0003564246975 0)
(0.7552165261 0.0003501537843 0)
(0.7545427906 0.0003440325312 0)
(0.7538770924 0.000338054847 0)
(0.7532192886 0.0003322186786 0)
(0.7525692461 0.0003265226768 0)
(0.751926835 0.0003209645652 0)
(0.7512919245 0.0003155421484 0)
(0.750664386 0.0003102533244 0)
(0.7500440931 0.0003050959854 0)
(0.7494309213 0.0003000679811 0)
(0.7488247477 0.0002951671117 0)
(0.7482254512 0.0002903911329 0)
(0.7476329122 0.0002857377647 0)
(0.7470470129 0.0002812046985 0)
(0.7464676372 0.0002767896042 0)
(0.7458946705 0.0002724901378 0)
(0.7453279999 0.000268303946 0)
(0.7447675143 0.0002642286704 0)
(0.7442131043 0.0002602619519 0)
(0.7436646618 0.0002564014363 0)
(0.7431220807 0.0002526447787 0)
(0.7425852566 0.0002489896466 0)
(0.7420540864 0.0002454337276 0)
(0.741528469 0.0002419747371 0)
(0.7410083048 0.0002386104233 0)
(0.7404934955 0.000235338568 0)
(0.7399839448 0.0002321569727 0)
(0.7394795576 0.0002290634456 0)
(0.7389802404 0.0002260558045 0)
(0.7384859015 0.0002231318832 0)
(0.7379964507 0.0002202895263 0)
(0.7375117994 0.0002175265737 0)
(0.7370318607 0.0002148408652 0)
(0.7365565494 0.0002122302809 0)
(0.736085782 0.0002096927555 0)
(0.7356194765 0.0002072262557 0)
(0.7351575525 0.000204828764 0)
(0.7346999311 0.0002024982865 0)
(0.7342465351 0.0002002328656 0)
(0.7337972888 0.0001980305767 0)
(0.733352118 0.0001958895293 0)
(0.7329109502 0.000193807888 0)
(0.7324737143 0.0001917838845 0)
(0.7320403406 0.0001898158068 0)
(0.7316107609 0.0001879019827 0)
(0.7311849082 0.0001860407702 0)
(0.730762717 0.0001842305545 0)
(0.7303441232 0.0001824697497 0)
(0.7299290639 0.0001807568013 0)
(0.7295174776 0.0001790901864 0)
(0.7291093042 0.0001774684173 0)
(0.7287044847 0.0001758900431 0)
(0.7283029617 0.0001743536516 0)
(0.7279046787 0.0001728578697 0)
(0.7275095806 0.0001714013542 0)
(0.7271176133 0.0001699827805 0)
(0.7267287243 0.0001686008424 0)
(0.726342862 0.0001672542587 0)
(0.725959976 0.0001659417787 0)
(0.7255800174 0.000164662184 0)
(0.7252029382 0.000163414296 0)
(0.7248286917 0.0001621969895 0)
(0.7244572322 0.0001610092068 0)
(0.724088515 0.0001598499582 0)
(0.7237224961 0.0001587182818 0)
(0.7233591328 0.0001576132019 0)
(0.722998383 0.0001565337296 0)
(0.7226402059 0.000155478889 0)
(0.7222845615 0.000154447736 0)
(0.721931411 0.0001534393623 0)
(0.7215807162 0.0001524528935 0)
(0.7212324403 0.0001514874865 0)
(0.720886547 0.0001505423306 0)
(0.7205430009 0.0001496166476 0)
(0.7202017677 0.0001487096898 0)
(0.7198628138 0.0001478207359 0)
(0.7195261062 0.0001469490912 0)
(0.719191613 0.000146094088 0)
(0.718859303 0.0001452550826 0)
(0.7185291455 0.0001444314554 0)
(0.7182011108 0.0001436226083 0)
(0.7178751699 0.0001428279648 0)
(0.7175512942 0.0001420469708 0)
(0.7172294563 0.0001412790932 0)
(0.7169096289 0.0001405238172 0)
(0.7165917857 0.0001397806467 0)
(0.716275901 0.0001390491057 0)
(0.7159619494 0.0001383287365 0)
(0.7156499067 0.0001376190973 0)
(0.7153397486 0.0001369197635 0)
(0.7150314518 0.0001362303285 0)
(0.7147249935 0.0001355504036 0)
(0.7144203513 0.0001348796163 0)
(0.7141175034 0.0001342176124 0)
(0.7138164284 0.0001335640582 0)
(0.7135171056 0.0001329186397 0)
(0.7132195145 0.0001322810581 0)
(0.7129236351 0.000131651026 0)
(0.7126294479 0.0001310282658 0)
(0.7123369338 0.0001304125085 0)
(0.7120460741 0.0001298034941 0)
(0.7117568505 0.0001292009724 0)
(0.711469245 0.0001286047016 0)
(0.7111832402 0.0001280144425 0)
(0.710898819 0.000127429956 0)
(0.7106159647 0.0001268510165 0)
(0.710334661 0.0001262774254 0)
(0.710054892 0.0001257090056 0)
(0.7097766419 0.0001251455902 0)
(0.7094998954 0.0001245870113 0)
(0.7092246376 0.0001240330988 0)
(0.7089508536 0.000123483688 0)
(0.7086785292 0.0001229386262 0)
(0.7084076503 0.0001223977721 0)
(0.708138203 0.0001218609903 0)
(0.707870174 0.0001213281476 0)
(0.7076035498 0.0001207991106 0)
(0.7073383177 0.0001202737466 0)
(0.7070744649 0.000119751931 0)
(0.7068119789 0.0001192335534 0)
(0.7065508477 0.0001187185181 0)
(0.7062910592 0.0001182067379 0)
(0.7060326017 0.0001176981316 0)
(0.7057754636 0.0001171926238 0)
(0.7055196335 0.0001166901433 0)
(0.7052651003 0.0001161906212 0)
(0.705011853 0.0001156939917 0)
(0.7047598807 0.000115200193 0)
(0.7045091729 0.0001147091666 0)
(0.704259719 0.0001142208556 0)
(0.7040115088 0.0001137352054 0)
(0.7037645321 0.000113252165 0)
(0.7035187791 0.0001127716855 0)
(0.7032742399 0.0001122937202 0)
(0.703030905 0.0001118182234 0)
(0.7027887647 0.0001113451506 0)
(0.7025478099 0.0001108744595 0)
(0.7023080312 0.0001104061089 0)
(0.7020694198 0.0001099400574 0)
(0.7018319666 0.0001094762643 0)
(0.7015956631 0.0001090146921 0)
(0.7013605005 0.000108555308 0)
(0.7011264705 0.0001080980857 0)
(0.7008935647 0.0001076430115 0)
(0.7006617748 0.0001071900878 0)
(0.7004310925 0.0001067393281 0)
(0.7002015098 0.0001062907424 0)
(0.6999730186 0.0001058443261 0)
(0.6997456107 0.0001054000624 0)
(0.6995192783 0.000104957929 0)
(0.6992940137 0.0001045179039 0)
(0.6990698091 0.000104079967 0)
(0.6988466571 0.0001036441017 0)
(0.6986245501 0.0001032102931 0)
(0.6984034807 0.0001027785269 0)
(0.6981834418 0.0001023487896 0)
(0.6979644262 0.0001019210698 0)
(0.6977464267 0.0001014953574 0)
(0.6975294363 0.000101071642 0)
(0.6973134482 0.0001006499134 0)
(0.6970984555 0.0001002301634 0)
(0.6968844513 9.981238396e-05 0)
(0.696671429 9.939656798e-05 0)
(0.696459382 9.898270808e-05 0)
(0.6962483037 9.857079711e-05 0)
(0.6960381876 9.816082928e-05 0)
(0.6958290272 9.775279951e-05 0)
(0.6956208163 9.734670191e-05 0)
(0.6954135484 9.694253066e-05 0)
(0.6952072174 9.65402812e-05 0)
(0.695001817 9.613994959e-05 0)
(0.6947973413 9.574153102e-05 0)
(0.6945937839 9.534502063e-05 0)
(0.6943911391 9.495041466e-05 0)
(0.6941894008 9.455770978e-05 0)
(0.6939885631 9.416690161e-05 0)
(0.6937886202 9.377798554e-05 0)
(0.6935895663 9.339095787e-05 0)
(0.6933913957 9.300581519e-05 0)
(0.6931941027 9.262255293e-05 0)
(0.6929976815 9.224116623e-05 0)
(0.6928021268 9.186165113e-05 0)
(0.6926074329 9.148400402e-05 0)
(0.6924135943 9.110822042e-05 0)
(0.6922206057 9.073429606e-05 0)
(0.6920284615 9.03622284e-05 0)
(0.6918371566 8.999201579e-05 0)
(0.6916466855 8.962365872e-05 0)
(0.691457043 8.925715872e-05 0)
(0.6912682239 8.889251868e-05 0)
(0.6910802229 8.85297428e-05 0)
(0.6908930349 8.816883427e-05 0)
(0.6907066547 8.780979258e-05 0)
(0.6905210772 8.745261361e-05 0)
(0.6903362973 8.709729039e-05 0)
(0.6901523101 8.674381256e-05 0)
(0.6899691104 8.639216694e-05 0)
(0.6897866936 8.604234218e-05 0)
(0.6896050545 8.569433248e-05 0)
(0.6894241885 8.53481357e-05 0)
(0.6892440907 8.500374876e-05 0)
(0.6890647564 8.466116589e-05 0)
(0.6888861809 8.432037869e-05 0)
(0.6887083594 8.398137612e-05 0)
(0.6885312873 8.364414539e-05 0)
(0.68835496 8.330867546e-05 0)
(0.6881793731 8.297495931e-05 0)
(0.6880045218 8.264299276e-05 0)
(0.6878304019 8.231277197e-05 0)
(0.6876570087 8.198429359e-05 0)
(0.687484338 8.165755547e-05 0)
(0.6873123852 8.13325559e-05 0)
(0.687141146 8.100929213e-05 0)
(0.6869706161 8.068776079e-05 0)
(0.6868007911 8.036795864e-05 0)
(0.6866316668 8.004988106e-05 0)
(0.6864632388 7.97335222e-05 0)
(0.686295503 7.941887328e-05 0)
(0.6861284552 7.910592283e-05 0)
(0.6859620912 7.879465799e-05 0)
(0.6857964069 7.848506515e-05 0)
(0.6856313982 7.817713089e-05 0)
(0.6854670612 7.787084435e-05 0)
(0.6853033918 7.756619845e-05 0)
(0.685140386 7.726318828e-05 0)
(0.68497804 7.696180868e-05 0)
(0.6848163498 7.666205429e-05 0)
(0.6846553116 7.636392026e-05 0)
(0.6844949214 7.606740165e-05 0)
(0.6843351755 7.577249209e-05 0)
(0.6841760699 7.547918457e-05 0)
(0.684017601 7.518747244e-05 0)
(0.683859765 7.489734889e-05 0)
(0.683702558 7.460880589e-05 0)
(0.6835459765 7.432183486e-05 0)
(0.6833900167 7.403642763e-05 0)
(0.6832346749 7.375257593e-05 0)
(0.6830799476 7.34702702e-05 0)
(0.6829258311 7.318950021e-05 0)
(0.682772322 7.291025602e-05 0)
(0.6826194165 7.263252745e-05 0)
(0.6824671113 7.235630304e-05 0)
(0.6823154029 7.208157097e-05 0)
(0.6821642878 7.180832066e-05 0)
(0.6820137626 7.153654266e-05 0)
(0.6818638239 7.126623063e-05 0)
(0.6817144683 7.099738133e-05 0)
(0.6815656926 7.072999504e-05 0)
(0.6814174933 7.046407372e-05 0)
(0.681269867 7.019961671e-05 0)
(0.6811228106 6.993661771e-05 0)
(0.6809763206 6.967506666e-05 0)
(0.6808303937 6.941495267e-05 0)
(0.6806850268 6.915626489e-05 0)
(0.6805402166 6.889899199e-05 0)
(0.6803959599 6.86431233e-05 0)
(0.6802522535 6.838865015e-05 0)
(0.6801090943 6.813556556e-05 0)
(0.6799664792 6.788386284e-05 0)
(0.679824405 6.763353534e-05 0)
(0.6796828687 6.738457635e-05 0)
(0.6795418671 6.713697802e-05 0)
(0.6794013973 6.689073054e-05 0)
(0.6792614562 6.664582351e-05 0)
(0.6791220409 6.640224726e-05 0)
(0.6789831482 6.615999268e-05 0)
(0.6788447754 6.59190502e-05 0)
(0.6787069194 6.567941045e-05 0)
(0.6785695774 6.544106512e-05 0)
(0.6784327464 6.520400592e-05 0)
(0.6782964237 6.496822511e-05 0)
(0.6781606063 6.473371441e-05 0)
(0.6780252914 6.450046553e-05 0)
(0.6778904763 6.426847088e-05 0)
(0.6777561582 6.403772317e-05 0)
(0.6776223343 6.38082143e-05 0)
(0.6774890019 6.357993599e-05 0)
(0.6773561582 6.335288062e-05 0)
(0.6772238005 6.312704083e-05 0)
(0.6770919263 6.290240854e-05 0)
(0.6769605327 6.267897561e-05 0)
(0.6768296172 6.245673463e-05 0)
(0.6766991771 6.22356785e-05 0)
(0.6765692098 6.201579938e-05 0)
(0.6764397128 6.179708925e-05 0)
(0.6763106835 6.157954072e-05 0)
(0.6761821192 6.136314658e-05 0)
(0.6760540176 6.114789886e-05 0)
(0.6759263761 6.093378945e-05 0)
(0.6757991921 6.072081088e-05 0)
(0.6756724632 6.050895594e-05 0)
(0.675546187 6.029821665e-05 0)
(0.675420361 6.008858487e-05 0)
(0.6752949828 5.988005314e-05 0)
(0.6751700499 5.967261432e-05 0)
(0.67504556 5.946626077e-05 0)
(0.6749215108 5.926098506e-05 0)
(0.6747978998 5.905678093e-05 0)
(0.6746747247 5.885364255e-05 0)
(0.6745519832 5.865156515e-05 0)
(0.674429673 5.845054421e-05 0)
(0.6743077917 5.825057567e-05 0)
(0.6741863372 5.805165617e-05 0)
(0.674065307 5.785378181e-05 0)
(0.673944699 5.765694635e-05 0)
(0.6738245108 5.746114137e-05 0)
(0.6737047403 5.726635731e-05 0)
(0.6735853852 5.707258423e-05 0)
(0.6734664434 5.687981241e-05 0)
(0.6733479126 5.668803364e-05 0)
(0.6732297907 5.649724149e-05 0)
(0.6731120755 5.630742987e-05 0)
(0.672994765 5.61185913e-05 0)
(0.6728778571 5.593071714e-05 0)
(0.6727613496 5.574379852e-05 0)
(0.6726452404 5.555782661e-05 0)
(0.6725295276 5.537279253e-05 0)
(0.672414209 5.518868836e-05 0)
(0.6722992828 5.500550766e-05 0)
(0.6721847467 5.482324475e-05 0)
(0.672070599 5.464189351e-05 0)
(0.6719568376 5.446144774e-05 0)
(0.6718434605 5.428190186e-05 0)
(0.6717304659 5.410325001e-05 0)
(0.6716178516 5.392548653e-05 0)
(0.6715056159 5.374860521e-05 0)
(0.6713937569 5.357259984e-05 0)
(0.6712822725 5.339746484e-05 0)
(0.671171161 5.322319496e-05 0)
(0.6710604204 5.304978423e-05 0)
(0.670950049 5.287722655e-05 0)
(0.6708400448 5.27055163e-05 0)
(0.670730406 5.253464809e-05 0)
(0.6706211308 5.236461589e-05 0)
(0.6705122174 5.219541356e-05 0)
(0.670403664 5.202703547e-05 0)
(0.6702954687 5.185947581e-05 0)
(0.6701876299 5.16927275e-05 0)
(0.6700801458 5.152678235e-05 0)
(0.6699730147 5.136163162e-05 0)
(0.6698662348 5.119726579e-05 0)
(0.6697598044 5.103367426e-05 0)
(0.6696537218 5.087084668e-05 0)
(0.6695479855 5.070877442e-05 0)
(0.6694425936 5.054745042e-05 0)
(0.6693375447 5.038686803e-05 0)
(0.6692328371 5.022702101e-05 0)
(0.6691284692 5.006790381e-05 0)
(0.6690244394 4.990951101e-05 0)
(0.6689207461 4.975183649e-05 0)
(0.6688173878 4.959487384e-05 0)
(0.6687143629 4.943861703e-05 0)
(0.6686116699 4.928305955e-05 0)
(0.6685093072 4.912819493e-05 0)
(0.6684072734 4.897401588e-05 0)
(0.6683055669 4.882051477e-05 0)
(0.6682041863 4.866768421e-05 0)
(0.6681031301 4.851551667e-05 0)
(0.6680023968 4.83640036e-05 0)
(0.6679019851 4.821313595e-05 0)
(0.6678018935 4.806290478e-05 0)
(0.6677021205 4.791330105e-05 0)
(0.6676026649 4.776431504e-05 0)
(0.6675035253 4.761593727e-05 0)
(0.6674047002 4.746815956e-05 0)
(0.6673061885 4.73209752e-05 0)
(0.6672079887 4.717437838e-05 0)
(0.6671100997 4.702836438e-05 0)
(0.66701252 4.688292901e-05 0)
(0.6669152484 4.67380669e-05 0)
(0.6668182837 4.659376997e-05 0)
(0.6667216245 4.645002822e-05 0)
(0.6666252697 4.630683102e-05 0)
(0.6665292181 4.616416733e-05 0)
(0.6664334684 4.602202515e-05 0)
(0.6663380195 4.58803921e-05 0)
(0.6662428702 4.57392561e-05 0)
(0.6661480194 4.559860503e-05 0)
(0.6660534661 4.545842607e-05 0)
(0.6659592091 4.531870614e-05 0)
(0.6658652475 4.517943254e-05 0)
(0.6657715801 4.50405922e-05 0)
(0.665678206 4.490217197e-05 0)
(0.6655851243 4.476415779e-05 0)
(0.6654923339 4.462653502e-05 0)
(0.665399834 4.448928919e-05 0)
(0.6653076237 4.435240581e-05 0)
(0.6652157021 4.421586981e-05 0)
(0.6651240683 4.407966597e-05 0)
(0.6650327216 4.394377914e-05 0)
(0.6649416612 4.380819352e-05 0)
(0.6648508864 4.367289148e-05 0)
(0.6647603964 4.353785387e-05 0)
(0.6646701906 4.340306065e-05 0)
(0.6645802684 4.326849068e-05 0)
(0.6644906291 4.313412117e-05 0)
(0.6644012721 4.299992825e-05 0)
(0.664312197 4.286588775e-05 0)
(0.6642234033 4.273197491e-05 0)
(0.6641348904 4.259816367e-05 0)
(0.6640466582 4.246442702e-05 0)
(0.6639587061 4.233073743e-05 0)
(0.6638710341 4.219706648e-05 0)
(0.6637836417 4.206338401e-05 0)
(0.663696529 4.192965856e-05 0)
(0.6636096957 4.179585775e-05 0)
(0.6635231419 4.166194764e-05 0)
(0.6634368676 4.152789293e-05 0)
(0.6633508727 4.139365621e-05 0)
(0.6632651576 4.125919811e-05 0)
(0.6631797224 4.112447781e-05 0)
(0.6630945673 4.09894526e-05 0)
(0.6630096928 4.085407718e-05 0)
(0.6629250993 4.07183041e-05 0)
(0.6628407874 4.058208407e-05 0)
(0.6627567577 4.044536562e-05 0)
(0.6626730109 4.030809424e-05 0)
(0.6625895478 4.017021268e-05 0)
(0.6625063693 4.003166141e-05 0)
(0.6624234766 3.98923783e-05 0)
(0.6623408707 3.975229779e-05 0)
(0.6622585528 3.961135127e-05 0)
(0.6621765245 3.946946737e-05 0)
(0.6620947873 3.932657148e-05 0)
(0.6620133427 3.918258481e-05 0)
(0.6619321926 3.903742455e-05 0)
(0.661851339 3.889100415e-05 0)
(0.661770784 3.874323282e-05 0)
(0.6616905298 3.859401467e-05 0)
(0.661610579 3.844324889e-05 0)
(0.6615309341 3.829083008e-05 0)
(0.6614515979 3.813664774e-05 0)
(0.6613725736 3.79805854e-05 0)
(0.6612938643 3.782252075e-05 0)
(0.6612154735 3.766232592e-05 0)
(0.6611374049 3.749986651e-05 0)
(0.6610596624 3.733500152e-05 0)
(0.6609822503 3.716758226e-05 0)
(0.6609051729 3.699745225e-05 0)
(0.6608284351 3.682444733e-05 0)
(0.6607520418 3.664839519e-05 0)
(0.6606759984 3.646911451e-05 0)
(0.6606003106 3.628641496e-05 0)
(0.6605249845 3.61000974e-05 0)
(0.6604500263 3.590995297e-05 0)
(0.6603754429 3.571576184e-05 0)
(0.6603012415 3.55172927e-05 0)
(0.6602274296 3.531430258e-05 0)
(0.6601540153 3.510653592e-05 0)
(0.660081007 3.489372343e-05 0)
(0.6600084138 3.467558181e-05 0)
(0.659936245 3.445181384e-05 0)
(0.6598645107 3.422210729e-05 0)
(0.6597932215 3.398613368e-05 0)
(0.6597223886 3.374354753e-05 0)
(0.6596520238 3.349398581e-05 0)
(0.6595821395 3.323706678e-05 0)
(0.6595127489 3.297238843e-05 0)
(0.659443866 3.26995274e-05 0)
(0.6593755053 3.24180383e-05 0)
(0.6593076823 3.212745222e-05 0)
(0.6592404133 3.182727503e-05 0)
(0.6591737155 3.151698635e-05 0)
(0.6591076071 3.119603925e-05 0)
(0.6590421072 3.086385928e-05 0)
(0.6589772359 3.051984459e-05 0)
(0.6589130144 3.01633655e-05 0)
(0.6588494653 2.979376465e-05 0)
(0.658786612 2.941035596e-05 0)
(0.6587244793 2.901242019e-05 0)
(0.6586630934 2.859919706e-05 0)
(0.6586024817 2.816987725e-05 0)
(0.6585426732 2.772359797e-05 0)
(0.6584836984 2.725944304e-05 0)
(0.6584255894 2.677644584e-05 0)
(0.6583683802 2.627359177e-05 0)
(0.6583121067 2.574981706e-05 0)
(0.6582568064 2.520400432e-05 0)
(0.658202519 2.463497737e-05 0)
(0.6581492866 2.40414972e-05 0)
(0.658097153 2.342225845e-05 0)
(0.6580461647 2.277588518e-05 0)
(0.6579963708 2.210092581e-05 0)
(0.6579478227 2.139584793e-05 0)
(0.6579005747 2.065903364e-05 0)
(0.6578546842 1.988877436e-05 0)
(0.6578102115 1.90832646e-05 0)
(0.6577672201 1.824059536e-05 0)
(0.6577257773 1.735874761e-05 0)
(0.6576859536 1.643558404e-05 0)
(0.6576478238 1.546884037e-05 0)
(0.6576114665 1.445611485e-05 0)
(0.6575769649 1.339485612e-05 0)
(0.6575444065 1.228235026e-05 0)
(0.657513884 1.111570358e-05 0)
(0.6574854953 9.891822079e-06 0)
(0.6574593439 8.607386959e-06 0)
(0.6574355393 7.258833358e-06 0)
(0.6574141975 5.842340497e-06 0)
(0.6573954425 4.35399353e-06 0)
(0.6573794045 2.789194928e-06 0)
(0.6573662201 1.14204241e-06 0)
(0.6573560517 -5.994851691e-07 0)
(0.6573491062 -2.467835837e-06 0)
(0.657345569 -4.559944839e-06 0)
(0.6573459707 -6.960622776e-06 0)
(0.6573506815 -9.618509608e-06 0)
(0.6573598533 -1.242646145e-05 0)
(0.6573737227 -1.533401906e-05 0)
(0.6573924976 -1.835116043e-05 0)
(0.6574163851 -2.149250026e-05 0)
(0.6574456223 -2.477999694e-05 0)
(0.6574804658 -2.822404683e-05 0)
(0.6575211984 -3.183797571e-05 0)
(0.6575681089 -3.563113288e-05 0)
(0.6576215131 -3.961339889e-05 0)
(0.6576817477 -4.379608969e-05 0)
(0.6577491682 -4.819164033e-05 0)
(0.6578241504 -5.281328585e-05 0)
(0.6579070927 -5.76750066e-05 0)
(0.6579984181 -6.279167118e-05 0)
(0.658098576 -6.817924676e-05 0)
(0.6582080442 -7.385497679e-05 0)
(0.6583273307 -7.983750937e-05 0)
(0.6584569761 -8.614699144e-05 0)
(0.6585975563 -9.280516643e-05 0)
(0.6587496848 -9.983548814e-05 0)
(0.6589140161 -0.0001072632683 0)
(0.6590912489 -0.0001151158532 0)
(0.6592821299 -0.0001234228369 0)
(0.6594874572 -0.0001322162971 0)
(0.6597080857 -0.0001415310653 0)
(0.6599449309 -0.0001514050243 0)
(0.660198975 -0.0001618794526 0)
(0.6604712726 -0.000172999405 0)
(0.6607629576 -0.0001848141523 0)
(0.6610752502 -0.0001973776793 0)
(0.6614094659 -0.000210749268 0)
(0.6617670245 -0.0002249941613 0)
(0.6621494606 -0.000240184338 0)
(0.6625584363 -0.000256399408 0)
(0.6629957538 -0.0002737276715 0)
(0.6634633721 -0.0002922673475 0)
(0.6639634237 -0.0003121280293 0)
(0.6644982359 -0.000333432408 0)
(0.6650703537 -0.0003563183172 0)
(0.6656825672 -0.0003809412035 0)
(0.6663379438 -0.0004074770858 0)
(0.6670398649 -0.0004361261618 0)
(0.66779207 -0.0004671172088 0)
(0.6685987087 -0.0005007130419 0)
(0.6694644025 -0.0005372172865 0)
(0.67039432 -0.0005769829136 0)
(0.6713942667 -0.0006204230749 0)
(0.6724707967 -0.0006680250915 0)
(0.6736313496 -0.0007203686694 0)
(0.6748844224 -0.0007781500555 0)
(0.676239787 -0.000842214565 0)
(0.677708771 -0.0009136013328 0)
(0.6793046239 -0.0009936061196 0)
(0.6810430064 -0.001083871842 0)
(0.6829426562 -0.001186522835 0)
(0.6850263211 -0.001304370999 0)
(0.6873221025 -0.001441244697 0)
(0.6898654634 -0.001602537953 0)
(0.6927023537 -0.001796175513 0)
(0.6958943251 -0.002034407574 0)
(0.6995273307 -0.002337342136 0)
(0.7037262697 -0.002740616346 0)
(0.7086916124 -0.003321281899 0)
(0.7156109445 -0.004174570775 0)
(1.000197242 0.001046392313 0)
(1.000652282 0.001967548046 0)
(1.001037113 0.002381854061 0)
(1.001233861 0.002620440746 0)
(1.001296452 0.002784355804 0)
(1.001273005 0.002893907115 0)
(1.001178463 0.002960025027 0)
(1.00102054 0.003001902814 0)
(1.000809055 0.003028946799 0)
(1.000551638 0.00304551983 0)
(1.000252935 0.003054815612 0)
(0.9999166734 0.00305911068 0)
(0.999546249 0.003060065057 0)
(0.9991442682 0.003058780258 0)
(0.9987134083 0.003055668371 0)
(0.9982565561 0.003050460067 0)
(0.9977762869 0.003043410367 0)
(0.9972744579 0.003035218978 0)
(0.9967523805 0.003026456205 0)
(0.996211041 0.003017483303 0)
(0.9956513671 0.003008208387 0)
(0.9950744671 0.002998351312 0)
(0.9944814959 0.002987801594 0)
(0.9938734763 0.002976527708 0)
(0.993251333 0.002964505747 0)
(0.9926159505 0.002951787463 0)
(0.9919681298 0.002938556954 0)
(0.9913085331 0.002924982928 0)
(0.9906376888 0.002911143732 0)
(0.9899560726 0.002896971755 0)
(0.9892642103 0.002882363488 0)
(0.9885626722 0.002867308655 0)
(0.9878520062 0.002851858683 0)
(0.9871327148 0.002836058176 0)
(0.9864052748 0.002819938842 0)
(0.9856701432 0.002803529576 0)
(0.9849277545 0.00278686422 0)
(0.9841785098 0.002769995529 0)
(0.9834227619 0.002752958508 0)
(0.9826608527 0.002735730476 0)
(0.9818931551 0.002718296313 0)
(0.9811200491 0.002700688552 0)
(0.9803418842 0.002682942449 0)
(0.9795589763 0.002665072171 0)
(0.9787716242 0.002647083763 0)
(0.9779801134 0.002628979321 0)
(0.9771847288 0.002610733748 0)
(0.9763857736 0.002592323962 0)
(0.9755835395 0.002573784897 0)
(0.9747782673 0.002555172805 0)
(0.9739701645 0.002536516355 0)
(0.9731594356 0.002517828221 0)
(0.9723462846 0.002499116752 0)
(0.9715309095 0.002480387799 0)
(0.9707135008 0.002461645679 0)
(0.9698942413 0.002442893971 0)
(0.9690733071 0.002424135692 0)
(0.9682508673 0.002405372466 0)
(0.9674270858 0.002386601745 0)
(0.9666021218 0.002367821107 0)
(0.9657761206 0.002349058256 0)
(0.9649492168 0.002330334742 0)
(0.9641215406 0.002311646535 0)
(0.9632932196 0.002292988533 0)
(0.9624643792 0.002274358851 0)
(0.9616351388 0.002255757604 0)
(0.9608056118 0.00223718553 0)
(0.9599759062 0.002218643517 0)
(0.959146125 0.002200132476 0)
(0.9583163664 0.002181653212 0)
(0.9574867242 0.002163206262 0)
(0.9566572881 0.002144791628 0)
(0.9558281432 0.002126408206 0)
(0.9549993696 0.002108052479 0)
(0.9541710398 0.00208971933 0)
(0.9533432221 0.002071423557 0)
(0.9525159854 0.002053215535 0)
(0.9516894028 0.002035097097 0)
(0.9508635407 0.002017058704 0)
(0.9500384549 0.00199909298 0)
(0.9492141958 0.001981196067 0)
(0.9483908127 0.001963364048 0)
(0.9475683537 0.001945594843 0)
(0.9467468647 0.001927889693 0)
(0.9459263864 0.001910253075 0)
(0.9451069539 0.0018926936 0)
(0.9442885953 0.001875227466 0)
(0.9434713305 0.001857885771 0)
(0.9426551723 0.001840731533 0)
(0.9418401313 0.00182389737 0)
(0.9410262262 0.001807182285 0)
(0.9402136174 0.001788243675 0)
(0.9394025001 0.001767764957 0)
(0.9385929502 0.001748229593 0)
(0.9377850674 0.001729275423 0)
(0.9369789222 0.001710760194 0)
(0.9361745666 0.001692634134 0)
(0.9353720144 0.001674881098 0)
(0.9345712859 0.001657503992 0)
(0.9337725772 0.001640486068 0)
(0.9329761852 0.001623764022 0)
(0.9321822388 0.001607264943 0)
(0.9313907279 0.001590941183 0)
(0.9306016557 0.001574774868 0)
(0.9298150565 0.001558759081 0)
(0.9290309774 0.001542888401 0)
(0.9282494693 0.001527158266 0)
(0.9274705841 0.00151156668 0)
(0.9266943727 0.001496115979 0)
(0.9259208832 0.001480807494 0)
(0.9251501624 0.001465640261 0)
(0.9243822574 0.001450612642 0)
(0.9236172146 0.001435723398 0)
(0.9228550793 0.001420971756 0)
(0.9220958952 0.001406357383 0)
(0.9213397041 0.001391880701 0)
(0.9205865452 0.001377543687 0)
(0.9198364541 0.001363350535 0)
(0.9190894642 0.001349299576 0)
(0.9183456133 0.001335368404 0)
(0.9176049381 0.001321558986 0)
(0.9168674727 0.001307875758 0)
(0.9161332475 0.001294321325 0)
(0.9154022913 0.00128089692 0)
(0.9146746319 0.001267603464 0)
(0.9139502958 0.00125444177 0)
(0.9132293079 0.001241412485 0)
(0.9125116915 0.001228516168 0)
(0.9117974684 0.001215753402 0)
(0.9110866588 0.00120312483 0)
(0.9103792812 0.001190631005 0)
(0.9096753526 0.001178272228 0)
(0.9089748887 0.001166048424 0)
(0.9082779044 0.001153959028 0)
(0.9075844137 0.001142003646 0)
(0.9068944302 0.001130182362 0)
(0.906207966 0.001118495357 0)
(0.9055250319 0.001106942158 0)
(0.9048456382 0.001095521248 0)
(0.904169795 0.001084231576 0)
(0.9034975114 0.001073072727 0)
(0.9028287953 0.001062044317 0)
(0.902163653 0.001051145562 0)
(0.9015020897 0.001040374936 0)
(0.9008441095 0.00102973174 0)
(0.9001897162 0.001019222275 0)
(0.8995389133 0.001008849774 0)
(0.8988917038 0.0009986131502 0)
(0.8982480878 0.0009885102914 0)
(0.8976080641 0.0009785391735 0)
(0.8969716304 0.0009686980953 0)
(0.8963387845 0.0009589856253 0)
(0.8957095236 0.0009494005011 0)
(0.8950838439 0.0009399415497 0)
(0.8944617413 0.0009306076519 0)
(0.8938432107 0.0009213977236 0)
(0.8932282464 0.0009123107062 0)
(0.8926168423 0.0009033455494 0)
(0.8920089913 0.0008945012031 0)
(0.8914046858 0.000885776611 0)
(0.8908039177 0.0008771707109 0)
(0.890206678 0.0008686824296 0)
(0.8896129575 0.0008603106829 0)
(0.8890227459 0.0008520543774 0)
(0.8884360329 0.0008439124203 0)
(0.8878528074 0.000835883726 0)
(0.8872730575 0.000827967232 0)
(0.8866967712 0.0008201619143 0)
(0.8861239356 0.0008124667816 0)
(0.8855545372 0.0008048808272 0)
(0.884988562 0.0007974029786 0)
(0.8844259955 0.0007900321078 0)
(0.8838668226 0.0007827670558 0)
(0.883311028 0.0007756066194 0)
(0.8827585959 0.0007685494834 0)
(0.8822095102 0.0007615942483 0)
(0.8816637544 0.0007547396219 0)
(0.8811213122 0.0007479844241 0)
(0.8805821664 0.0007413274635 0)