/*--------------------------------*- C++ -*----------------------------------*\
| =========                 |                                                 |
| \\      /  F ield         | OpenFOAM: The Open Source CFD Toolbox           |
|  \\    /   O peration     | Version:  2312                                  |
|   \\  /    A nd           | Website:  www.openfoam.com                      |
|    \\/     M anipulation  |                                                 |
\*---------------------------------------------------------------------------*/
FoamFile
{
    version     2.0;
    format      ascii;
    arch        "LSB;label=32;scalar=64";
    class       surfaceScalarField;
    location    "351";
    object      phi;
}
// * * * * * * * * * * * * * * * * * * * * * * * * * * * * * * * * * * * * * //

dimensions      [0 3 -1 0 0 0 0];

oriented        oriented;

internalField   nonuniform List<scalar> 
125957
(
7.069992873e-06
3.691328154e-09
7.065048097e-06
4.944775681e-09
7.059554499e-06
5.493598382e-09
7.053542752e-06
6.011746712e-09
7.047084603e-06
6.458148761e-09
7.040261738e-06
6.822865065e-09
7.033126483e-06
7.135254729e-09
7.025708221e-06
7.418261902e-09
7.018026951e-06
7.681270201e-09
7.010096053e-06
7.930898113e-09
7.001926037e-06
8.170015808e-09
6.993524311e-06
8.401726585e-09
6.984896309e-06
8.62800199e-09
6.976046574e-06
8.849734535e-09
6.966979274e-06
9.067300417e-09
6.957698378e-06
9.280895398e-09
6.948207765e-06
9.490612912e-09
6.93851132e-06
9.696445705e-09
6.928613015e-06
9.898305015e-09
6.91851693e-06
1.009608458e-08
6.908227099e-06
1.028983099e-08
6.897747747e-06
1.047935243e-08
6.887083559e-06
1.066418777e-08
6.876239503e-06
1.084405592e-08
6.86522073e-06
1.10187733e-08
6.854032573e-06
1.118815681e-08
6.842680457e-06
1.13521164e-08
6.831169952e-06
1.151050461e-08
6.819506798e-06
1.166315387e-08
6.807696906e-06
1.18098919e-08
6.795746358e-06
1.19505486e-08
6.783661364e-06
1.208499315e-08
6.77144827e-06
1.221309403e-08
6.759113448e-06
1.233482232e-08
6.74666329e-06
1.245015835e-08
6.734104221e-06
1.255906847e-08
6.721442705e-06
1.266151595e-08
6.708685187e-06
1.275751819e-08
6.695838084e-06
1.284710364e-08
6.682907787e-06
1.293029697e-08
6.669900657e-06
1.300712938e-08
6.656823007e-06
1.307765016e-08
6.643681078e-06
1.314192899e-08
6.63048102e-06
1.32000576e-08
6.617228858e-06
1.325216197e-08
6.603930461e-06
1.329839714e-08
6.590591583e-06
1.333887853e-08
6.577217889e-06
1.337369345e-08
6.563814946e-06
1.340294284e-08
6.55038817e-06
1.342677638e-08
6.536942818e-06
1.344535257e-08
6.523484004e-06
1.345881406e-08
6.510016712e-06
1.346729157e-08
6.496545773e-06
1.347093875e-08
6.483075848e-06
1.346992467e-08
6.469611429e-06
1.346441952e-08
6.45615684e-06
1.345458933e-08
6.442716241e-06
1.344059889e-08
6.429293629e-06
1.34226116e-08
6.415892839e-06
1.340079057e-08
6.402517542e-06
1.337529647e-08
6.389171254e-06
1.334628855e-08
6.37585733e-06
1.331392326e-08
6.362578977e-06
1.32783538e-08
6.349339246e-06
1.323973029e-08
6.336141049e-06
1.319819749e-08
6.322987154e-06
1.315389487e-08
6.309880199e-06
1.310695462e-08
6.296822697e-06
1.305750208e-08
6.28381703e-06
1.300566683e-08
6.270865443e-06
1.295158686e-08
6.257970045e-06
1.28953983e-08
6.245132821e-06
1.283722456e-08
6.232355648e-06
1.277717296e-08
6.219640296e-06
1.271535157e-08
6.206988435e-06
1.265186098e-08
6.194401635e-06
1.258679975e-08
6.181881376e-06
1.252025979e-08
6.169429039e-06
1.245233632e-08
6.157045919e-06
1.238311992e-08
6.144733218e-06
1.231270157e-08
6.132492062e-06
1.224115583e-08
6.120323519e-06
1.216854329e-08
6.108228604e-06
1.209491508e-08
6.096208273e-06
1.202033007e-08
6.084263424e-06
1.194484953e-08
6.072394897e-06
1.186852721e-08
6.06060348e-06
1.17914165e-08
6.048889917e-06
1.171356274e-08
6.037254908e-06
1.163500958e-08
6.025699113e-06
1.155579451e-08
6.014223157e-06
1.147595638e-08
6.00282763e-06
1.139552677e-08
5.991513095e-06
1.131453492e-08
5.980280093e-06
1.123300278e-08
5.969129141e-06
1.115095114e-08
5.958060755e-06
1.106838617e-08
5.947075473e-06
1.098528221e-08
5.93617383e-06
1.0901643e-08
5.925356167e-06
1.081766358e-08
5.914622539e-06
1.073362744e-08
5.903972744e-06
1.064979531e-08
5.893405993e-06
1.056675103e-08
5.882923252e-06
1.04827411e-08
5.872527192e-06
1.039605969e-08
5.862218302e-06
1.030888975e-08
5.851995798e-06
1.022250412e-08
5.84185936e-06
1.013643763e-08
5.831808749e-06
1.005061173e-08
5.821843757e-06
9.964991312e-09
5.811964213e-06
9.879544612e-09
5.802169956e-06
9.794256681e-09
5.792460825e-06
9.70913064e-09
5.782836654e-06
9.624171448e-09
5.773297266e-06
9.5393877e-09
5.76384248e-06
9.454786285e-09
5.754472106e-06
9.370374175e-09
5.745185956e-06
9.286149838e-09
5.735983843e-06
9.202113535e-09
5.726865575e-06
9.118267432e-09
5.717830955e-06
9.034619751e-09
5.70887978e-06
8.951175634e-09
5.700011839e-06
8.867940654e-09
5.691226922e-06
8.784917478e-09
5.682524809e-06
8.702112172e-09
5.673905282e-06
8.619527878e-09
5.665368113e-06
8.537168608e-09
5.656913077e-06
8.455035769e-09
5.648539943e-06
8.373134195e-09
5.640248477e-06
8.29146614e-09
5.632038442e-06
8.210034918e-09
5.6239096e-06
8.128841534e-09
5.61586171e-06
8.047890459e-09
5.607894526e-06
7.967183842e-09
5.600007801e-06
7.886725005e-09
5.592201286e-06
7.806515189e-09
5.584474727e-06
7.726559101e-09
5.576827867e-06
7.646859349e-09
5.569260448e-06
7.567419271e-09
5.561772205e-06
7.488242916e-09
5.554362873e-06
7.40933246e-09
5.547032179e-06
7.330693455e-09
5.53977985e-06
7.252329525e-09
5.532605604e-06
7.174245487e-09
5.52550916e-06
7.096444299e-09
5.518490228e-06
7.01893201e-09
5.511548515e-06
6.941712573e-09
5.504683725e-06
6.864790722e-09
5.497895556e-06
6.788168988e-09
5.491183703e-06
6.711852466e-09
5.484547862e-06
6.635841063e-09
5.477987731e-06
6.560131485e-09
5.471502981e-06
6.484749922e-09
5.465093234e-06
6.40974702e-09
5.458758107e-06
6.335126319e-09
5.452497241e-06
6.260866884e-09
5.446310268e-06
6.186972415e-09
5.4401968e-06
6.113468392e-09
5.43415644e-06
6.040359453e-09
5.428188789e-06
5.967651343e-09
5.422293438e-06
5.895350935e-09
5.416469969e-06
5.823469534e-09
5.410717952e-06
5.752016497e-09
5.405036951e-06
5.681000838e-09
5.39942652e-06
5.610430746e-09
5.393886201e-06
5.540319167e-09
5.388415522e-06
5.470679063e-09
5.383013998e-06
5.401524515e-09
5.377681127e-06
5.332871036e-09
5.372416392e-06
5.264734754e-09
5.367219254e-06
5.197137738e-09
5.362089148e-06
5.13010654e-09
5.35702547e-06
5.063677618e-09
5.352027572e-06
4.997897561e-09
5.347094755e-06
4.932817537e-09
5.342226332e-06
4.868422905e-09
5.3374221e-06
4.804231781e-09
5.332682089e-06
4.740011073e-09
5.328005794e-06
4.676295491e-09
5.323392421e-06
4.613372484e-09
5.31884125e-06
4.551170803e-09
5.314351613e-06
4.489637658e-09
5.309922845e-06
4.428767709e-09
5.305554282e-06
4.368563378e-09
5.301245253e-06
4.309028952e-09
5.296995083e-06
4.250170192e-09
5.292803085e-06
4.191997473e-09
5.288668562e-06
4.134522993e-09
5.2845908e-06
4.07776245e-09
5.280569081e-06
4.021718398e-09
5.276602705e-06
3.966376672e-09
5.272690957e-06
3.911747594e-09
5.268833114e-06
3.857843283e-09
5.26502844e-06
3.804673566e-09
5.261276196e-06
3.752244078e-09
5.257575635e-06
3.700560872e-09
5.253926007e-06
3.649628244e-09
5.250326557e-06
3.599450218e-09
5.246776528e-06
3.550028967e-09
5.24327516e-06
3.501367433e-09
5.239821693e-06
3.453466864e-09
5.236415365e-06
3.406328366e-09
5.233055413e-06
3.359951562e-09
5.229741076e-06
3.3143372e-09
5.226471592e-06
3.269484741e-09
5.223246198e-06
3.225393163e-09
5.220064139e-06
3.18205917e-09
5.216924659e-06
3.139479896e-09
5.213827008e-06
3.097651042e-09
5.21077044e-06
3.056568275e-09
5.207754214e-06
3.01622583e-09
5.204777596e-06
2.976618674e-09
5.201839855e-06
2.937740374e-09
5.198940271e-06
2.899584372e-09
5.196078128e-06
2.862142714e-09
5.19325272e-06
2.825408138e-09
5.190463348e-06
2.789372026e-09
5.187709322e-06
2.754025519e-09
5.184989964e-06
2.71935803e-09
5.182304607e-06
2.685357737e-09
5.179652601e-06
2.652005773e-09
5.177033306e-06
2.619295147e-09
5.174446071e-06
2.58723477e-09
5.171890249e-06
2.555821509e-09
5.169365212e-06
2.525037434e-09
5.166870345e-06
2.49486702e-09
5.164405047e-06
2.465297618e-09
5.16196873e-06
2.436316928e-09
5.159560817e-06
2.407913563e-09
5.157180742e-06
2.380074885e-09
5.154827953e-06
2.352789108e-09
5.152501908e-06
2.326044998e-09
5.150202075e-06
2.299833215e-09
5.14792793e-06
2.274144318e-09
5.14567896e-06
2.248969997e-09
5.143454658e-06
2.224302626e-09
5.14125452e-06
2.200137466e-09
5.139078049e-06
2.176471625e-09
5.136924744e-06
2.153305015e-09
5.134794106e-06
2.130637455e-09
5.132685644e-06
2.108462167e-09
5.130598903e-06
2.086741274e-09
5.128533548e-06
2.065354538e-09
5.126489395e-06
2.044153559e-09
5.124466234e-06
2.023161167e-09
5.122463716e-06
2.002517149e-09
5.120481444e-06
1.982272703e-09
5.118519036e-06
1.962408102e-09
5.116576128e-06
1.942907272e-09
5.114652368e-06
1.92376073e-09
5.11274741e-06
1.904958046e-09
5.110860922e-06
1.886487659e-09
5.108992584e-06
1.868337736e-09
5.107142086e-06
1.850498061e-09
5.105309127e-06
1.832958744e-09
5.103493416e-06
1.815710913e-09
5.101694671e-06
1.798745736e-09
5.099912616e-06
1.782055245e-09
5.098146987e-06
1.765628857e-09
5.096397524e-06
1.749462839e-09
5.094663961e-06
1.733562787e-09
5.092946042e-06
1.717919187e-09
5.091243522e-06
1.702519794e-09
5.089556164e-06
1.687358239e-09
5.087883733e-06
1.672431155e-09
5.086225998e-06
1.657735228e-09
5.084582731e-06
1.64326606e-09
5.082953712e-06
1.629019596e-09
5.08133872e-06
1.614991549e-09
5.079737542e-06
1.601178509e-09
5.078149965e-06
1.587576797e-09
5.076575782e-06
1.574183148e-09
5.075014788e-06
1.560994059e-09
5.073466781e-06
1.548007027e-09
5.071931561e-06
1.535219572e-09
5.070408932e-06
1.522629631e-09
5.068898697e-06
1.510235199e-09
5.067400663e-06
1.498033573e-09
5.06591464e-06
1.486022471e-09
5.064440442e-06
1.474198862e-09
5.062977882e-06
1.46255938e-09
5.061526782e-06
1.451100187e-09
5.060086963e-06
1.439818904e-09
5.058658249e-06
1.42871396e-09
5.057240464e-06
1.417785384e-09
5.055833431e-06
1.407032447e-09
5.054436977e-06
1.396453984e-09
5.053050929e-06
1.386048358e-09
5.051675114e-06
1.37581482e-09
5.050309361e-06
1.365752746e-09
5.048953499e-06
1.355862235e-09
5.047607356e-06
1.346143294e-09
5.046270759e-06
1.336596734e-09
5.044943536e-06
1.327223495e-09
5.043625511e-06
1.318024896e-09
5.04231651e-06
1.309000426e-09
5.041016365e-06
1.300145747e-09
5.039724918e-06
1.291446427e-09
5.038442048e-06
1.282869872e-09
5.037167687e-06
1.274361001e-09
5.035901795e-06
1.265892458e-09
5.034644285e-06
1.257510433e-09
5.033395014e-06
1.249270682e-09
5.03215383e-06
1.241184126e-09
5.030920586e-06
1.233243714e-09
5.029695142e-06
1.225443833e-09
5.028477362e-06
1.217779957e-09
5.027267115e-06
1.210247666e-09
5.026064272e-06
1.202842163e-09
5.024868713e-06
1.195559309e-09
5.023680318e-06
1.18839509e-09
5.022498972e-06
1.181346324e-09
5.021324562e-06
1.174409757e-09
5.020156979e-06
1.167582523e-09
5.018996118e-06
1.160861584e-09
5.017841873e-06
1.154244521e-09
5.016694145e-06
1.147728691e-09
5.015552833e-06
1.141311674e-09
5.014417842e-06
1.134990755e-09
5.013289078e-06
1.128763735e-09
5.01216645e-06
1.122628132e-09
5.011049869e-06
1.116581634e-09
5.009939247e-06
1.110621614e-09
5.008834501e-06
1.104745919e-09
5.007735549e-06
1.098951832e-09
5.006642314e-06
1.093235669e-09
5.00555472e-06
1.087594095e-09
5.004472694e-06
1.082025927e-09
5.003396163e-06
1.076530355e-09
5.002325057e-06
1.071106327e-09
5.001259304e-06
1.065752511e-09
5.000198837e-06
1.060467167e-09
4.999143588e-06
1.05524906e-09
4.998093492e-06
1.050096741e-09
4.997048483e-06
1.045008986e-09
4.996008498e-06
1.03998432e-09
4.994973476e-06
1.035021737e-09
4.993943357e-06
1.030119917e-09
4.992918079e-06
1.025277642e-09
4.991897585e-06
1.020493531e-09
4.990881818e-06
1.015767054e-09
4.989870721e-06
1.011097836e-09
4.988864235e-06
1.006485769e-09
4.987862305e-06
1.001929782e-09
4.986864878e-06
9.974271419e-10
4.985871907e-06
9.929711745e-10
4.984883356e-06
9.885506754e-10
4.983899205e-06
9.841508339e-10
4.982919441e-06
9.797640699e-10
4.981944041e-06
9.753996869e-10
4.980972968e-06
9.710733067e-10
4.980006177e-06
9.667912177e-10
4.979043624e-06
9.625531568e-10
4.978085266e-06
9.583579034e-10
4.977131061e-06
9.542049625e-10
4.976180967e-06
9.500933191e-10
4.975234945e-06
9.460219923e-10
4.974292956e-06
9.419896756e-10
4.973354961e-06
9.379951621e-10
4.972420923e-06
9.340373217e-10
4.971490808e-06
9.301148277e-10
4.970564581e-06
9.262269787e-10
4.969642208e-06
9.223730532e-10
4.968723656e-06
9.185525705e-10
4.967808891e-06
9.147647982e-10
4.966897882e-06
9.110094072e-10
4.965990596e-06
9.072858548e-10
4.965087002e-06
9.035937689e-10
4.964187069e-06
8.999325475e-10
4.963290767e-06
8.963020112e-10
4.962398066e-06
8.927017769e-10
4.961508934e-06
8.891316191e-10
4.960623343e-06
8.855910579e-10
4.959741263e-06
8.820799691e-10
4.958862665e-06
8.785979183e-10
4.957987521e-06
8.751444374e-10
4.957115802e-06
8.71718508e-10
4.956247483e-06
8.683190413e-10
4.955382539e-06
8.649441816e-10
4.954520947e-06
8.615918243e-10
4.953662687e-06
8.582599886e-10
4.952807739e-06
8.549485946e-10
4.95195608e-06
8.51659059e-10
4.951107686e-06
8.483933175e-10
4.950262534e-06
8.451522559e-10
4.949420598e-06
8.419363498e-10
4.948581852e-06
8.387454712e-10
4.947746273e-06
8.355791298e-10
4.946913837e-06
8.324362602e-10
4.946084521e-06
8.293154526e-10
4.945258305e-06
8.262163098e-10
4.944435166e-06
8.231387191e-10
4.943615084e-06
8.20082738e-10
4.942798036e-06
8.170480459e-10
4.941984001e-06
8.14034567e-10
4.941172959e-06
8.110419333e-10
4.940364889e-06
8.080697946e-10
4.939559772e-06
8.051174393e-10
4.938757588e-06
8.021844201e-10
4.937958317e-06
7.99270129e-10
4.937161943e-06
7.963742725e-10
4.936368447e-06
7.934965702e-10
4.935577809e-06
7.906372735e-10
4.934790013e-06
7.877964198e-10
4.934005039e-06
7.849739544e-10
4.933222869e-06
7.821694083e-10
4.932443487e-06
7.793826002e-10
4.931666874e-06
7.76613168e-10
4.930893013e-06
7.738608866e-10
4.930121887e-06
7.71125307e-10
4.929353481e-06
7.68406308e-10
4.928587778e-06
7.657035651e-10
4.927824761e-06
7.630168087e-10
4.927064415e-06
7.603458319e-10
4.926306725e-06
7.576902126e-10
4.925551675e-06
7.55049867e-10
4.92479925e-06
7.524245402e-10
4.924049436e-06
7.498141376e-10
4.923302218e-06
7.472184062e-10
4.92255758e-06
7.44637457e-10
4.921815509e-06
7.420711867e-10
4.92107599e-06
7.395195281e-10
4.920339008e-06
7.3698213e-10
4.919604549e-06
7.344589282e-10
4.918872599e-06
7.319496465e-10
4.918143145e-06
7.294540793e-10
4.917416173e-06
7.269717557e-10
4.916691671e-06
7.245024984e-10
4.915969625e-06
7.220459922e-10
4.915250023e-06
7.19602115e-10
4.914532852e-06
7.171705868e-10
4.913818101e-06
7.147514427e-10
4.913105756e-06
7.123445187e-10
4.912395806e-06
7.099497497e-10
4.91168824e-06
7.075668585e-10
4.910983044e-06
7.051958645e-10
4.910280207e-06
7.028365928e-10
4.909579718e-06
7.004889675e-10
4.908881566e-06
6.981527048e-10
4.908185738e-06
6.95827818e-10
4.907492224e-06
6.935141376e-10
4.906801012e-06
6.912115493e-10
4.906112092e-06
6.889200089e-10
4.905425453e-06
6.866392974e-10
4.904741083e-06
6.843695243e-10
4.904058973e-06
6.821106573e-10
4.90337911e-06
6.798627955e-10
4.902701484e-06
6.77625841e-10
4.902026084e-06
6.753999492e-10
4.901352899e-06
6.731850214e-10
4.900681918e-06
6.709809421e-10
4.900013131e-06
6.687872427e-10
4.899346527e-06
6.666036298e-10
4.898682098e-06
6.644297094e-10
4.898019832e-06
6.622654015e-10
4.897359722e-06
6.601105794e-10
4.896701756e-06
6.579654159e-10
4.896045926e-06
6.558298737e-10
4.895392222e-06
6.537039853e-10
4.894740635e-06
6.515875763e-10
4.894091154e-06
6.494807278e-10
4.893443771e-06
6.473833115e-10
4.892798475e-06
6.45295244e-10
4.892155259e-06
6.432161955e-10
4.891514113e-06
6.411460626e-10
4.890875029e-06
6.390845635e-10
4.890237997e-06
6.370315217e-10
4.88960301e-06
6.349869255e-10
4.888970059e-06
6.329506983e-10
4.888339136e-06
6.309231036e-10
4.887710232e-06
6.289042142e-10
4.887083338e-06
6.268941027e-10
4.886458445e-06
6.248925688e-10
4.885835546e-06
6.228996401e-10
4.88521463e-06
6.209151741e-10
4.884595691e-06
6.189391231e-10
4.88397872e-06
6.16971257e-10
4.883363708e-06
6.150116071e-10
4.882750648e-06
6.130600389e-10
4.882139532e-06
6.111165077e-10
4.881530351e-06
6.09180789e-10
4.880923098e-06
6.072529154e-10
4.880317766e-06
6.053327554e-10
4.879714345e-06
6.03420267e-10
4.87911283e-06
6.015152356e-10
4.878513212e-06
5.996177131e-10
4.877915485e-06
5.977276082e-10
4.87731964e-06
5.95844941e-10
4.87672567e-06
5.939695811e-10
4.876133569e-06
5.921016614e-10
4.875543328e-06
5.902411409e-10
4.87495494e-06
5.883880291e-10
4.874368397e-06
5.865421292e-10
4.873783694e-06
5.847034747e-10
4.873200822e-06
5.828719303e-10
4.872619775e-06
5.810473831e-10
4.872040545e-06
5.792297401e-10
4.871463126e-06
5.774187164e-10
4.870887512e-06
5.756142694e-10
4.870313696e-06
5.738162243e-10
4.869741671e-06
5.720245242e-10
4.869171432e-06
5.702389685e-10
4.868602973e-06
5.684596056e-10
4.868036286e-06
5.666863284e-10
4.867471367e-06
5.649191083e-10
4.86690821e-06
5.631577476e-10
4.866346807e-06
5.61402284e-10
4.865787155e-06
5.596526006e-10
4.865229246e-06
5.579086595e-10
4.864673076e-06
5.561702592e-10
4.864118638e-06
5.544374371e-10
4.863565928e-06
5.52710087e-10
4.86301494e-06
5.509881903e-10
4.862465668e-06
5.492715724e-10
4.861918108e-06
5.47560289e-10
4.861372254e-06
5.458542258e-10
4.860828101e-06
5.441532985e-10
4.860285643e-06
5.424571937e-10
4.859744878e-06
5.407657831e-10
4.859205799e-06
5.390788118e-10
4.858668403e-06
5.373961654e-10
4.858132685e-06
5.357176177e-10
4.857598642e-06
5.340431797e-10
4.857066269e-06
5.323727081e-10
4.856535563e-06
5.307060859e-10
4.85600652e-06
5.290432297e-10
4.855479136e-06
5.273838946e-10
4.854953408e-06
5.257280506e-10
4.854429332e-06
5.240755146e-10
4.853906906e-06
5.224261674e-10
4.853386126e-06
5.207797214e-10
4.85286699e-06
5.191360901e-10
4.852349495e-06
5.174950207e-10
4.851833639e-06
5.158563026e-10
4.851319419e-06
5.142195378e-10
4.850806835e-06
5.125845158e-10
4.850295884e-06
5.109508747e-10
4.849786566e-06
5.093183427e-10
4.849278879e-06
5.076865416e-10
4.848772824e-06
5.060553605e-10
4.848268399e-06
5.044245905e-10
4.847765605e-06
5.027941029e-10
4.847264442e-06
5.011635887e-10
4.846764909e-06
4.995328922e-10
4.846267007e-06
4.979016665e-10
4.845770738e-06
4.96269601e-10
4.845276101e-06
4.946362194e-10
4.8447831e-06
4.93001239e-10
4.844291736e-06
4.913642263e-10
4.843802011e-06
4.897247614e-10
4.843313929e-06
4.880824414e-10
4.842827492e-06
4.864367003e-10
4.842342705e-06
4.84787156e-10
4.841859572e-06
4.83133272e-10
4.841378097e-06
4.814745574e-10
4.840898287e-06
4.798103567e-10
4.840420147e-06
4.781401941e-10
4.839943683e-06
4.76463441e-10
4.839468904e-06
4.747795163e-10
4.838995816e-06
4.730876791e-10
4.838524429e-06
4.713873698e-10
4.838054751e-06
4.696778795e-10
4.837586792e-06
4.679585391e-10
4.837120564e-06
4.662285019e-10
4.836656077e-06
4.64487066e-10
4.836193343e-06
4.627333447e-10
4.835732377e-06
4.609664623e-10
4.835273191e-06
4.591853582e-10
4.834815802e-06
4.573891195e-10
4.834360226e-06
4.555766611e-10
4.833906479e-06
4.537469122e-10
4.83345458e-06
4.518986138e-10
4.833004549e-06
4.500306386e-10
4.832556408e-06
4.481416719e-10
4.832110177e-06
4.462303923e-10
4.831665882e-06
4.442952714e-10
4.831223547e-06
4.423348931e-10
4.8307832e-06
4.403476485e-10
4.830344868e-06
4.383318913e-10
4.829908582e-06
4.362859406e-10
4.829474374e-06
4.342079134e-10
4.829042278e-06
4.320960263e-10
4.828612329e-06
4.299482843e-10
4.828184567e-06
4.277626531e-10
4.82775903e-06
4.255368644e-10
4.827335761e-06
4.232687139e-10
4.826914805e-06
4.209557559e-10
4.82649621e-06
4.185954685e-10
4.826080025e-06
4.161850596e-10
4.825666303e-06
4.137217607e-10
4.825255101e-06
4.112025425e-10
4.824846476e-06
4.086243002e-10
4.824440493e-06
4.059836831e-10
4.824037215e-06
4.032773741e-10
4.823636714e-06
4.005017803e-10
4.823239061e-06
3.976531759e-10
4.822844333e-06
3.94727512e-10
4.822452612e-06
3.917206927e-10
4.822063984e-06
3.88628294e-10
4.821678538e-06
3.854457179e-10
4.82129637e-06
3.821680124e-10
4.82091758e-06
3.787901358e-10
4.820542273e-06
3.753066777e-10
4.820170561e-06
3.717120042e-10
4.819802561e-06
3.680000791e-10
4.819438397e-06
3.641647134e-10
4.819078197e-06
3.601992916e-10
4.8187221e-06
3.560968784e-10
4.81837025e-06
3.518502007e-10
4.818022799e-06
3.474514985e-10
4.817679906e-06
3.428927514e-10
4.817341741e-06
3.381654128e-10
4.81700848e-06
3.332605293e-10
4.816680311e-06
3.281685685e-10
4.816357432e-06
3.228796342e-10
4.816040048e-06
3.173832187e-10
4.81572838e-06
3.116683157e-10
4.815422657e-06
3.057232582e-10
4.815123121e-06
2.995359084e-10
4.814830027e-06
2.930934047e-10
4.814543645e-06
2.863822451e-10
4.814264257e-06
2.793881202e-10
4.813992161e-06
2.720960761e-10
4.813727671e-06
2.644902726e-10
4.813471117e-06
2.565540471e-10
4.813222847e-06
2.482697421e-10
4.812983228e-06
2.396188194e-10
4.812752646e-06
2.305816092e-10
4.812531509e-06
2.211373304e-10
4.812320245e-06
2.11263915e-10
4.812119307e-06
2.009380957e-10
4.811929171e-06
1.901351807e-10
4.811750342e-06
1.78829025e-10
4.81158335e-06
1.669918975e-10
4.811428756e-06
1.545942713e-10
4.811287151e-06
1.416047967e-10
4.811159161e-06
1.279901401e-10
4.811045446e-06
1.137153157e-10
4.810946699e-06
9.874624426e-11
4.810863666e-06
8.303275215e-11
4.810797177e-06
6.648970882e-11
4.810748178e-06
4.899842057e-11
4.810717824e-06
3.035439549e-11
4.810707826e-06
9.997250179e-12
4.810720338e-06
-1.251217293e-11
4.810757122e-06
-3.678337544e-11
4.810819217e-06
-6.209566966e-11
4.810907739e-06
-8.852180911e-11
4.811024089e-06
-1.163506114e-10
4.811169579e-06
-1.454897875e-10
4.81134555e-06
-1.759704908e-10
4.811553452e-06
-2.079029418e-10
4.811794829e-06
-2.413767406e-10
4.81207131e-06
-2.764807557e-10
4.812384619e-06
-3.133092378e-10
4.812736583e-06
-3.519640129e-10
4.813129141e-06
-3.925580593e-10
4.813564352e-06
-4.352113226e-10
4.814044404e-06
-4.800517612e-10
4.814571621e-06
-5.272174951e-10
4.815148478e-06
-5.768570031e-10
4.815777606e-06
-6.291287614e-10
4.816461807e-06
-6.842002943e-10
4.817204055e-06
-7.422479915e-10
4.818007513e-06
-8.034589115e-10
4.818875545e-06
-8.680320159e-10
4.819811725e-06
-9.361801591e-10
4.820819857e-06
-1.008131308e-09
4.821903987e-06
-1.084130906e-09
4.82306843e-06
-1.164442978e-09
4.824317783e-06
-1.24935246e-09
4.825656949e-06
-1.339166714e-09
4.827091168e-06
-1.434218686e-09
4.828626036e-06
-1.534868511e-09
4.830267543e-06
-1.641506915e-09
4.832022101e-06
-1.75455773e-09
4.833896583e-06
-1.874482757e-09
4.835898368e-06
-2.001784724e-09
4.838035381e-06
-2.137012774e-09
4.840316148e-06
-2.280766965e-09
4.842749854e-06
-2.433706051e-09
4.845346407e-06
-2.596553082e-09
4.848116512e-06
-2.770104625e-09
4.851071751e-06
-2.955239168e-09
4.854224681e-06
-3.152930316e-09
4.857588939e-06
-3.364257863e-09
4.861179363e-06
-3.59042415e-09
4.865012136e-06
-3.832772365e-09
4.869104942e-06
-4.092806771e-09
4.873477164e-06
-4.372221442e-09
4.878150093e-06
-4.672928733e-09
4.883147191e-06
-4.997098936e-09
4.888494396e-06
-5.347204522e-09
4.894220477e-06
-5.72608101e-09
4.900357471e-06
-6.136994544e-09
4.906941204e-06
-6.58373367e-09
4.914011924e-06
-7.070720294e-09
4.921615084e-06
-7.603160906e-09
4.929802315e-06
-8.18723267e-09
4.938632653e-06
-8.830338989e-09
4.948174097e-06
-9.541445491e-09
4.958505647e-06
-1.033155208e-08
4.969719982e-06
-1.121433775e-08
4.981927077e-06
-1.220709739e-08
4.995259182e-06
-1.333210866e-08
5.009877902e-06
-1.461872241e-08
5.025984522e-06
-1.61066229e-08
5.043835692e-06
-1.785117272e-08
5.063768205e-06
-1.993251514e-08
5.086240094e-06
-2.247188987e-08
5.111902377e-06
-2.56622838e-08
5.141732365e-06
-2.982998908e-08
5.177321162e-06
-3.558879823e-08
-4.380098712e-08
5.221122148e-06
7.075236676e-06
2.138853126e-09
7.076324407e-06
3.857044653e-09
7.077009589e-06
4.808416099e-09
7.07751276e-06
5.508575651e-09
7.077873543e-06
6.097365646e-09
7.078107726e-06
6.588682161e-09
7.078235506e-06
7.007474714e-09
7.078274544e-06
7.379224153e-09
7.078237409e-06
7.71840487e-09
7.078132683e-06
8.035623982e-09
7.077968338e-06
8.334360851e-09
7.077750749e-06
8.619315742e-09
7.077482975e-06
8.895776051e-09
7.077167204e-06
9.165506237e-09
7.076804874e-06
9.429629551e-09
7.07639672e-06
9.689049624e-09
7.075942989e-06
9.944344142e-09
7.07544356e-06
1.019587429e-08
7.074898028e-06
1.044383718e-08
7.07430583e-06
1.068828265e-08
7.073665555e-06
1.093010587e-08
7.072975336e-06
1.116957212e-08
7.07223377e-06
1.140575331e-08
7.071439416e-06
1.163840969e-08
7.070590584e-06
1.186760512e-08
7.069685492e-06
1.209324917e-08
7.068722472e-06
1.231513676e-08
7.067699815e-06
1.253316122e-08
7.066615736e-06
1.274723328e-08
7.065468366e-06
1.295726139e-08
7.064255794e-06
1.316312037e-08
7.062976211e-06
1.336457668e-08
7.061628088e-06
1.356121726e-08
7.060209731e-06
1.375317931e-08
7.058719409e-06
1.39404796e-08
7.057155539e-06
1.412293937e-08
7.05551669e-06
1.430036461e-08
7.053801474e-06
1.447273423e-08
7.052008584e-06
1.463999335e-08
7.050136842e-06
1.480203904e-08
7.0481852e-06
1.495877145e-08
7.046152737e-06
1.51101134e-08
7.044038657e-06
1.525600839e-08
7.041842284e-06
1.539643092e-08
7.039563002e-06
1.553144357e-08
7.037200185e-06
1.566121411e-08
7.034753386e-06
1.578567755e-08
7.032222377e-06
1.590470321e-08
7.029607036e-06
1.601828385e-08
7.02690734e-06
1.612647217e-08
7.024123353e-06
1.622933986e-08
7.021255243e-06
1.632692398e-08
7.018303322e-06
1.641921242e-08
7.015267985e-06
1.650627523e-08
7.0121497e-06
1.658820986e-08
7.008949008e-06
1.6665112e-08
7.005666526e-06
1.673707127e-08
7.002302945e-06
1.680417943e-08
6.998859026e-06
1.686653085e-08
6.995335593e-06
1.692422402e-08
6.99173353e-06
1.697735912e-08
6.988053779e-06
1.702603955e-08
6.984297332e-06
1.707037037e-08
6.980465228e-06
1.711045761e-08
6.97655855e-06
1.714640844e-08
6.97257842e-06
1.717832754e-08
6.968525998e-06
1.72063162e-08
6.964402486e-06
1.723046718e-08
6.960209128e-06
1.725086034e-08
6.955947186e-06
1.726760795e-08
6.951617925e-06
1.728084851e-08
6.947222612e-06
1.729071074e-08
6.942762534e-06
1.729730258e-08
6.938238992e-06
1.730071539e-08
6.933653294e-06
1.730104931e-08
6.929006756e-06
1.729839946e-08
6.924300693e-06
1.729286245e-08
6.919536423e-06
1.728453014e-08
6.914715254e-06
1.727350474e-08
6.909838484e-06
1.725988987e-08
6.90490738e-06
1.724380607e-08
6.89992321e-06
1.722532588e-08
6.894887251e-06
1.720450243e-08
6.889800777e-06
1.718138847e-08
6.88466505e-06
1.715605713e-08
6.879481312e-06
1.712858766e-08
6.87425079e-06
1.709904917e-08
6.868974695e-06
1.706751159e-08
6.863654222e-06
1.703403566e-08
6.858290548e-06
1.699868412e-08
6.852884828e-06
1.696151364e-08
6.8474382e-06
1.692258514e-08
6.841951776e-06
1.688195073e-08
6.836426649e-06
1.683966141e-08
6.830863892e-06
1.679576009e-08
6.82526455e-06
1.675029328e-08
6.819629637e-06
1.670329863e-08
6.813960105e-06
1.665481419e-08
6.808256855e-06
1.660489368e-08
6.802520798e-06
1.655372001e-08
6.796752852e-06
1.650157379e-08
6.790953876e-06
1.644877154e-08
6.785124762e-06
1.639586501e-08
6.779266647e-06
1.634085594e-08
6.773380812e-06
1.62818944e-08
6.767468425e-06
1.622127647e-08
6.76153052e-06
1.616040939e-08
6.755568107e-06
1.60988508e-08
6.749582216e-06
1.603650278e-08
6.743573878e-06
1.597332966e-08
6.737544107e-06
1.590931551e-08
6.731493901e-06
1.584446272e-08
6.725424241e-06
1.577879055e-08
6.719336097e-06
1.571231517e-08
6.713230426e-06
1.564505929e-08
6.707108168e-06
1.557704404e-08
6.700970258e-06
1.550828429e-08
6.694817631e-06
1.543877614e-08
6.688651224e-06
1.536852089e-08
6.682471964e-06
1.529752732e-08
6.676280769e-06
1.522581512e-08
6.670078546e-06
1.515339858e-08
6.663866193e-06
1.508029312e-08
6.657644602e-06
1.50065093e-08
6.65141465e-06
1.493206351e-08
6.645177211e-06
1.48569669e-08
6.638933148e-06
1.478123194e-08
6.632683317e-06
1.470486632e-08
6.626428568e-06
1.462788346e-08
6.620169742e-06
1.455029194e-08
6.613907675e-06
1.447210191e-08
6.607643198e-06
1.439331904e-08
6.601377133e-06
1.431395485e-08
6.595110301e-06
1.423401627e-08
6.588843514e-06
1.415351199e-08
6.582577583e-06
1.407244647e-08
6.576313312e-06
1.399083009e-08
6.570051502e-06
1.390866888e-08
6.563792952e-06
1.382596981e-08
6.557538454e-06
1.374274068e-08
6.551288801e-06
1.365898533e-08
6.545044781e-06
1.357471345e-08
6.53880718e-06
1.348993059e-08
6.532576781e-06
1.340464409e-08
6.526354368e-06
1.33188573e-08
6.520140721e-06
1.323257895e-08
6.513936621e-06
1.314581322e-08
6.507742846e-06
1.305856533e-08
6.501560179e-06
1.297083617e-08
6.495389397e-06
1.28826347e-08
6.489231262e-06
1.279397535e-08
6.483086525e-06
1.270486902e-08
6.47695595e-06
1.261532448e-08
6.470840322e-06
1.252537523e-08
6.464740428e-06
1.243502063e-08
6.458657041e-06
1.23442542e-08
6.452590919e-06
1.225309368e-08
6.446542817e-06
1.216157081e-08
6.440513493e-06
1.206968289e-08
6.434503714e-06
1.197743044e-08
6.428514243e-06
1.188482184e-08
6.42254584e-06
1.179187249e-08
6.416599265e-06
1.169859248e-08
6.410675277e-06
1.160498851e-08
6.40477464e-06
1.151106781e-08
6.398898111e-06
1.141684839e-08
6.393046442e-06
1.13223475e-08
6.387220382e-06
1.122758424e-08
6.381420673e-06
1.113258032e-08
6.375648049e-06
1.103735848e-08
6.369903234e-06
1.09419534e-08
6.364186931e-06
1.084640895e-08
6.358499816e-06
1.075079304e-08
6.352842499e-06
1.065521413e-08
6.34721544e-06
1.055987736e-08
6.341618662e-06
1.04652007e-08
6.336053285e-06
1.036960872e-08
6.330521222e-06
1.027207389e-08
6.325023141e-06
1.017437603e-08
6.319559256e-06
1.007725781e-08
6.314129933e-06
9.980494301e-09
6.308735528e-06
9.884042117e-09
6.303376405e-06
9.787891276e-09
6.298052934e-06
9.692034325e-09
6.292765487e-06
9.596475381e-09
6.287514431e-06
9.501226213e-09
6.282300118e-06
9.406310464e-09
6.277122883e-06
9.311758365e-09
6.271983038e-06
9.217607082e-09
6.266880893e-06
9.123863298e-09
6.261816753e-06
9.030516451e-09
6.256790901e-06
8.937600349e-09
6.251803588e-06
8.845156106e-09
6.246855048e-06
8.753213064e-09
6.241945498e-06
8.661794477e-09
6.237075132e-06
8.570926917e-09
6.232244126e-06
8.480634097e-09
6.227452636e-06
8.390940314e-09
6.222700798e-06