/*--------------------------------*- C++ -*----------------------------------*\
| =========                 |                                                 |
| \\      /  F ield         | OpenFOAM: The Open Source CFD Toolbox           |
|  \\    /   O peration     | Version:  2312                                  |
|   \\  /    A nd           | Website:  www.openfoam.com                      |
|    \\/     M anipulation  |                                                 |
\*---------------------------------------------------------------------------*/
FoamFile
{
    version     2.0;
    format      ascii;
    arch        "LSB;label=32;scalar=64";
    class       volVectorField;
    location    "351";
    object      U;
}
// * * * * * * * * * * * * * * * * * * * * * * * * * * * * * * * * * * * * * //

dimensions      [0 1 -1 0 0 0 0];

internalField   nonuniform List<vector> 
63546
(
(3.598432621 0.0007661453528 0)
(3.596808423 0.001573869888 0)
(3.594394128 0.002041527226 0)
(3.591409266 0.002388251622 0)
(3.588167006 0.002671621037 0)
(3.584766438 0.002906255708 0)
(3.581213224 0.003104992621 0)
(3.577509004 0.003279695949 0)
(3.573664078 0.003438660348 0)
(3.569688857 0.003586697005 0)
(3.565590096 0.003726479767 0)
(3.561372059 0.003859750796 0)
(3.55703778 0.003987983713 0)
(3.552589692 0.004112258754 0)
(3.54802992 0.004233282288 0)
(3.543360429 0.004351484587 0)
(3.538583183 0.004467147004 0)
(3.53370017 0.004580430805 0)
(3.528713422 0.004691407013 0)
(3.523625014 0.004800091096 0)
(3.518437008 0.004906509673 0)
(3.513151467 0.005010648491 0)
(3.507770601 0.005112376656 0)
(3.502296848 0.00521152088 0)
(3.496732813 0.005307907555 0)
(3.491081194 0.005401371944 0)
(3.485344779 0.005491842628 0)
(3.479526351 0.005579186237 0)
(3.473628773 0.005663268543 0)
(3.467654989 0.00574393731 0)
(3.461608034 0.005821042629 0)
(3.455491039 0.00589447535 0)
(3.449307207 0.005964140553 0)
(3.443059789 0.006029990393 0)
(3.436752052 0.006091993382 0)
(3.430387267 0.006150101194 0)
(3.423968714 0.006204258617 0)
(3.417499675 0.006254425796 0)
(3.410983419 0.006300575783 0)
(3.404423199 0.006342688942 0)
(3.397822252 0.006380754851 0)
(3.391183804 0.006414775139 0)
(3.384511054 0.006444764218 0)
(3.377807163 0.00647075006 0)
(3.371075239 0.006492775527 0)
(3.364318316 0.006510893187 0)
(3.357539355 0.00652514337 0)
(3.350741257 0.006535561312 0)
(3.343926876 0.006542205477 0)
(3.337099005 0.006545159615 0)
(3.330260361 0.006544519103 0)
(3.323413579 0.006540381313 0)
(3.316561226 0.006532844229 0)
(3.309705799 0.006522012948 0)
(3.302849718 0.006507998969 0)
(3.295995317 0.006490916593 0)
(3.28914484 0.006470881241 0)
(3.282300449 0.006448009282 0)
(3.275464222 0.00642241786 0)
(3.268638149 0.006394224459 0)
(3.261824141 0.006363546485 0)
(3.255024025 0.006330500932 0)
(3.248239546 0.006295204064 0)
(3.241472372 0.006257771085 0)
(3.234724093 0.006218315728 0)
(3.227996226 0.006176949759 0)
(3.221290215 0.006133782413 0)
(3.214607435 0.006088919864 0)
(3.207949198 0.006042465133 0)
(3.201316751 0.005994520169 0)
(3.194711272 0.00594518474 0)
(3.188133872 0.005894553428 0)
(3.181585592 0.005842715718 0)
(3.175067413 0.005789758296 0)
(3.168580262 0.005735766266 0)
(3.162125012 0.005680822766 0)
(3.155702487 0.005625008382 0)
(3.149313461 0.005568400968 0)
(3.142958661 0.005511075685 0)
(3.136638768 0.005453105058 0)
(3.130354416 0.005394558799 0)
(3.124106197 0.005335500581 0)
(3.117894666 0.00527598945 0)
(3.111720355 0.005216082294 0)
(3.105583764 0.005155833439 0)
(3.099485366 0.005095292966 0)
(3.093425606 0.005034506102 0)
(3.087404895 0.00497351355 0)
(3.081423626 0.004912352177 0)
(3.075482162 0.004851055681 0)
(3.069580852 0.004789654843 0)
(3.06372002 0.004728177483 0)
(3.057899974 0.004666648423 0)
(3.052121008 0.004605089556 0)
(3.046383401 0.004543519817 0)
(3.040687422 0.00448195461 0)
(3.035033333 0.004420404063 0)
(3.029421364 0.004358864983 0)
(3.023851833 0.004297335965 0)
(3.018325065 0.004235785515 0)
(3.012841047 0.004174212092 0)
(3.007399699 0.00411274216 0)
(3.002000873 0.004051595829 0)
(2.996644529 0.003991275524 0)
(2.991331442 0.003932185168 0)
(2.98606257 0.003874138788 0)
(2.980838052 0.003816715207 0)
(2.975657518 0.003759685256 0)
(2.9705207 0.003702984333 0)
(2.965427475 0.00364660372 0)
(2.960377771 0.003590549645 0)
(2.955371514 0.003534836857 0)
(2.950408622 0.003479485439 0)
(2.945489011 0.003424517072 0)
(2.940612594 0.003369952911 0)
(2.935779279 0.003315812463 0)
(2.930988972 0.003262112154 0)
(2.926241577 0.003208865035 0)
(2.921536998 0.003156081907 0)
(2.916875139 0.003103772527 0)
(2.912255902 0.003051945891 0)
(2.907679184 0.003000610264 0)
(2.903144881 0.002949773352 0)
(2.898652885 0.00289944242 0)
(2.894203087 0.002849624282 0)
(2.889795376 0.002800325252 0)
(2.885429638 0.002751551152 0)
(2.881105759 0.002703307376 0)
(2.876823622 0.002655598927 0)
(2.872583108 0.002608430456 0)
(2.868384097 0.002561806318 0)
(2.864226468 0.002515730636 0)
(2.860110099 0.002470207319 0)
(2.856034866 0.002425240075 0)
(2.852000644 0.002380832444 0)
(2.848007307 0.002336987839 0)
(2.844054727 0.002293709558 0)
(2.840142774 0.002251000813 0)
(2.836271317 0.002208864771 0)
(2.832440222 0.002167304578 0)
(2.828649355 0.002126323401 0)
(2.824898578 0.002085924426 0)
(2.821187754 0.002046110867 0)
(2.817516741 0.002006885965 0)
(2.813885396 0.001968252986 0)
(2.810293573 0.001930215192 0)
(2.806741125 0.00189277581 0)
(2.803227901 0.001855938 0)
(2.799753749 0.001819704824 0)
(2.796318516 0.00178407913 0)
(2.792922041 0.001749062291 0)
(2.789564166 0.00171465316 0)
(2.786244768 0.001680847727 0)
(2.782963643 0.001647630331 0)
(2.779720566 0.001615016403 0)
(2.776515378 0.001583009988 0)
(2.773347895 0.00155161546 0)
(2.770217922 0.001520837527 0)
(2.767125258 0.001490681105 0)
(2.7640697 0.001461151563 0)
(2.761051042 0.001432255508 0)
(2.758069074 0.001404000122 0)
(2.755123581 0.001376392345 0)
(2.752214342 0.001349438521 0)
(2.749341134 0.001323145019 0)
(2.746503725 0.001297518543 0)
(2.743701879 0.001272565873 0)
(2.740935354 0.001248293619 0)
(2.738203897 0.001224708254 0)
(2.735507251 0.001201816383 0)
(2.732845147 0.001179625159 0)
(2.730217304 0.001158142922 0)
(2.727623426 0.001137379929 0)
(2.725063196 0.001117348215 0)
(2.722536271 0.001098055619 0)
(2.720042291 0.00107947729 0)
(2.717581003 0.001061412243 0)
(2.715152351 0.001043619495 0)
(2.712756266 0.001026087646 0)
(2.710392457 0.001008918357 0)
(2.708060511 0.0009921871254 0)
(2.705760044 0.0009759414015 0)
(2.703490715 0.0009602105615 0)
(2.701252193 0.0009450108778 0)
(2.699044141 0.0009303497451 0)
(2.696866217 0.0009162287898 0)
(2.694718075 0.0009026457875 0)
(2.692599362 0.000889596149 0)
(2.690509719 0.0008770737395 0)
(2.688448782 0.0008650707787 0)
(2.686416188 0.000853578491 0)
(2.684411577 0.000842587002 0)
(2.682434586 0.0008320853965 0)
(2.680484843 0.0008220605742 0)
(2.678561972 0.0008124977597 0)
(2.676665595 0.0008033813751 0)
(2.67479533 0.0007946954329 0)
(2.672950795 0.0007864235894 0)
(2.671131604 0.000778549131 0)
(2.669337372 0.0007710549904 0)
(2.667567712 0.0007639238028 0)
(2.665822237 0.0007571379655 0)
(2.664100558 0.0007506797114 0)
(2.662402287 0.0007445311943 0)
(2.660727037 0.0007386745157 0)
(2.659074419 0.0007330916033 0)
(2.657444047 0.000727764179 0)
(2.655835537 0.0007226738595 0)
(2.654248504 0.0007178022592 0)
(2.65268257 0.0007131310107 0)
(2.651137354 0.0007086417602 0)
(2.649612482 0.0007043161924 0)
(2.648107582 0.0007001360874 0)
(2.646622283 0.0006960833613 0)
(2.64515622 0.0006921401011 0)
(2.64370903 0.0006882886036 0)
(2.642280358 0.0006845114171 0)
(2.640869848 0.0006807913352 0)
(2.639477153 0.0006771113026 0)
(2.63810193 0.0006734539678 0)
(2.636743838 0.0006698003064 0)
(2.635402565 0.0006661338947 0)
(2.634077778 0.0006624310789 0)
(2.632769131 0.0006586846751 0)
(2.631476311 0.000654882925 0)
(2.630199002 0.0006510138423 0)
(2.628936894 0.0006470663961 0)
(2.627689682 0.0006430302777 0)
(2.626457071 0.0006388955558 0)
(2.62523877 0.0006346527296 0)
(2.624034495 0.0006302931614 0)
(2.622843966 0.0006258091909 0)
(2.621666912 0.0006211940074 0)
(2.620503064 0.000616441597 0)
(2.619352157 0.0006115468342 0)
(2.618213933 0.0006065056415 0)
(2.617088134 0.0006013151676 0)
(2.615974505 0.0005959739409 0)
(2.614872794 0.000590481826 0)
(2.613782746 0.0005848393621 0)
(2.612704108 0.0005790454396 0)
(2.611636637 0.0005730916185 0)
(2.610580124 0.0005669523031 0)
(2.609534432 0.0005606161537 0)
(2.608499469 0.0005541439234 0)
(2.607475111 0.000547619117 0)
(2.606461171 0.0005410721723 0)
(2.605457441 0.0005344958533 0)
(2.604463725 0.0005278754543 0)
(2.60347984 0.000521198913 0)
(2.60250561 0.0005144571656 0)
(2.601540864 0.0005076438038 0)
(2.600585436 0.0005007551683 0)
(2.599639164 0.0004937902978 0)
(2.598701894 0.0004867505955 0)
(2.597773475 0.0004796393375 0)
(2.59685376 0.000472461175 0)
(2.595942608 0.000465221663 0)
(2.595039879 0.0004579261938 0)
(2.594145448 0.0004505820684 0)
(2.593259182 0.0004431908518 0)
(2.592380935 0.000435758875 0)
(2.591510585 0.0004282935892 0)
(2.590648011 0.0004208032967 0)
(2.589793094 0.0004132974751 0)
(2.588945714 0.0004057860667 0)
(2.588105755 0.0003982792183 0)
(2.587273104 0.0003907872141 0)
(2.586447646 0.0003833203919 0)
(2.585629273 0.0003758890618 0)
(2.584817876 0.0003685034527 0)
(2.584013347 0.0003611736559 0)
(2.583215583 0.0003539095817 0)
(2.582424478 0.0003467209421 0)
(2.581639932 0.0003396172509 0)
(2.580861843 0.0003326077515 0)
(2.580090112 0.0003257013231 0)
(2.579324639 0.0003189064265 0)
(2.578565328 0.0003122310891 0)
(2.577812082 0.0003056828597 0)
(2.577064805 0.0002992687484 0)
(2.576323406 0.0002929953497 0)
(2.575587793 0.0002868690028 0)
(2.574857877 0.0002808958718 0)
(2.574133566 0.0002750819721 0)
(2.573414773 0.0002694325823 0)
(2.572701407 0.0002639522032 0)
(2.571993381 0.0002586448718 0)
(2.571290606 0.0002535143863 0)
(2.570592997 0.0002485642894 0)
(2.569900465 0.0002437978104 0)
(2.569212922 0.0002392179142 0)
(2.568530283 0.0002348273562 0)
(2.567852458 0.0002306286262 0)
(2.567179359 0.0002266237354 0)
(2.566510897 0.0002228138318 0)
(2.565846984 0.0002191983993 0)
(2.565187537 0.0002157736221 0)
(2.564532482 0.0002125300926 0)
(2.56388177 0.0002094523527 0)
(2.563235372 0.0002065311263 0)
(2.562593264 0.00020376751 0)
(2.561955392 0.0002011593322 0)
(2.561321679 0.0001986990951 0)
(2.560692045 0.0001963807668 0)
(2.560066414 0.0001942019336 0)
(2.559444718 0.0001921619242 0)
(2.558826888 0.0001902602981 0)
(2.558212859 0.0001884965132 0)
(2.557602567 0.0001868698722 0)
(2.556995951 0.0001853793254 0)
(2.556392951 0.0001840232489 0)
(2.555793509 0.0001827993537 0)
(2.555197569 0.0001817047268 0)
(2.554605077 0.0001807359441 0)
(2.554015978 0.0001798892001 0)
(2.553430221 0.0001791604036 0)
(2.552847755 0.0001785452212 0)
(2.55226853 0.000178039087 0)
(2.551692497 0.0001776372152 0)
(2.551119609 0.0001773346213 0)
(2.550549821 0.0001771261434 0)
(2.549983088 0.0001770064728 0)
(2.549419366 0.0001769701948 0)
(2.548858614 0.000177011768 0)
(2.548300791 0.0001771253902 0)
(2.547745858 0.0001773057011 0)
(2.547193776 0.0001775479233 0)
(2.54664451 0.0001778475053 0)
(2.546098022 0.000178199836 0)
(2.545554277 0.0001786002177 0)
(2.545013238 0.0001790439248 0)
(2.544474872 0.0001795262562 0)
(2.543939145 0.0001800425708 0)
(2.543406023 0.0001805883112 0)
(2.542875474 0.000181159022 0)
(2.542347467 0.0001817503686 0)
(2.54182197 0.0001823581476 0)
(2.541298953 0.0001829782968 0)
(2.540778385 0.000183606946 0)
(2.540260236 0.0001842404897 0)
(2.539744479 0.0001848755966 0)
(2.539231083 0.0001855091232 0)
(2.538720019 0.0001861378832 0)
(2.538211261 0.0001867582813 0)
(2.537704782 0.0001873659284 0)
(2.53720056 0.0001879554337 0)
(2.536698581 0.0001885209459 0)
(2.536198837 0.0001890589223 0)
(2.53570132 0.0001895705653 0)
(2.535206016 0.0001900594783 0)
(2.534712905 0.0001905281421 0)
(2.534221961 0.0001909773611 0)
(2.533733164 0.0001914069549 0)
(2.53324649 0.0001918160887 0)
(2.53276192 0.0001922034194 0)
(2.532279431 0.0001925673396 0)
(2.531799004 0.000192906182 0)
(2.531320619 0.0001932182756 0)
(2.530844258 0.000193501959 0)
(2.530369902 0.0001937556419 0)
(2.529897533 0.0001939779224 0)
(2.529427135 0.0001941676716 0)
(2.528958689 0.000194324046 0)
(2.52849218 0.000194446461 0)
(2.52802759 0.0001945345565 0)
(2.527564903 0.0001945881605 0)
(2.527104103 0.0001946072502 0)
(2.526645174 0.0001945919217 0)
(2.5261881 0.0001945423847 0)
(2.525732867 0.0001944589684 0)
(2.525279458 0.0001943421207 0)
(2.524827858 0.0001941923991 0)
(2.524378053 0.0001940104611 0)
(2.523930027 0.0001937970448 0)
(2.523483766 0.0001935529289 0)
(2.523039255 0.0001932788772 0)
(2.522596481 0.0001929755874 0)
(2.52215543 0.0001926436618 0)
(2.521716091 0.0001922836477 0)
(2.521278453 0.0001918962276 0)
(2.520842504 0.0001914824898 0)
(2.520408236 0.0001910439267 0)
(2.519975637 0.0001905820661 0)
(2.519544693 0.0001900981813 0)
(2.519115392 0.0001895933353 0)
(2.518687722 0.0001890685274 0)
(2.51826167 0.0001885247182 0)
(2.517837223 0.0001879627908 0)
(2.517414369 0.0001873836678 0)
(2.516993098 0.0001867884041 0)
(2.516573399 0.0001861781362 0)
(2.516155261 0.0001855539914 0)
(2.515738672 0.0001849170587 0)
(2.515323622 0.000184268412 0)
(2.514910101 0.0001836091233 0)
(2.514498097 0.0001829402498 0)
(2.514087601 0.0001822628123 0)
(2.513678602 0.0001815777968 0)
(2.513271092 0.0001808861815 0)
(2.51286506 0.0001801889615 0)
(2.512460497 0.0001794871514 0)
(2.512057394 0.0001787817719 0)
(2.511655741 0.0001780738039 0)
(2.51125553 0.0001773641404 0)
(2.51085675 0.0001766535851 0)
(2.510459393 0.0001759428839 0)
(2.51006345 0.0001752327476 0)
(2.509668912 0.0001745238512 0)
(2.50927577 0.0001738168273 0)
(2.508884016 0.0001731122691 0)
(2.508493642 0.0001724107364 0)
(2.508104639 0.0001717127532 0)
(2.507717 0.0001710188121 0)
(2.507330716 0.000170329373 0)
(2.506945779 0.0001696448694 0)
(2.506562182 0.0001689657185 0)
(2.506179918 0.0001682923254 0)
(2.505798979 0.0001676250813 0)
(2.505419357 0.000166964361 0)
(2.505041044 0.0001663105103 0)
(2.504664034 0.0001656638299 0)
(2.504288319 0.0001650245725 0)
(2.503913892 0.0001643929533 0)
(2.503540745 0.000163769156 0)
(2.503168872 0.0001631533269 0)
(2.502798266 0.0001625455685 0)
(2.502428919 0.0001619459518 0)
(2.502060825 0.0001613545384 0)
(2.501693979 0.0001607713844 0)
(2.501328373 0.0001601965288 0)
(2.500964001 0.0001596299863 0)
(2.500600858 0.0001590717502 0)
(2.500238936 0.0001585217937 0)
(2.49987823 0.0001579800687 0)
(2.499518734 0.0001574465096 0)
(2.499160442 0.0001569210366 0)
(2.498803347 0.0001564035546 0)
(2.498447445 0.0001558939506 0)
(2.498092728 0.0001553920973 0)
(2.497739192 0.0001548978583 0)
(2.49738683 0.0001544110884 0)
(2.497035637 0.0001539316378 0)
(2.496685608 0.0001534593534 0)
(2.496336736 0.0001529940835 0)
(2.495989017 0.0001525356833 0)
(2.495642445 0.0001520840107 0)
(2.495297014 0.0001516389154 0)
(2.494952718 0.0001512002314 0)
(2.494609553 0.0001507677695 0)
(2.494267512 0.0001503413051 0)
(2.49392659 0.0001499205658 0)
(2.493586782 0.0001495052505 0)
(2.493248082 0.0001490950816 0)
(2.492910487 0.0001486898396 0)
(2.492573991 0.0001482893482 0)
(2.492238589 0.0001478934478 0)
(2.491904276 0.0001475019823 0)
(2.491571048 0.0001471147949 0)
(2.4912389 0.0001467317225 0)
(2.490907826 0.0001463525938 0)
(2.490577822 0.0001459772282 0)
(2.490248883 0.0001456054303 0)
(2.489921004 0.0001452369853 0)
(2.489594181 0.0001448716643 0)
(2.489268409 0.0001445092399 0)
(2.488943684 0.0001441495003 0)
(2.488620002 0.000143792265 0)
(2.488297358 0.0001434373847 0)
(2.487975748 0.0001430847309 0)
(2.487655167 0.0001427341788 0)
(2.487335612 0.0001423855896 0)
(2.487017077 0.0001420388103 0)
(2.486699559 0.0001416936888 0)
(2.486383054 0.0001413500847 0)
(2.486067556 0.0001410078683 0)
(2.485753062 0.000140666914 0)
(2.485439568 0.0001403271 0)
(2.485127069 0.0001399883104 0)
(2.484815561 0.0001396504331 0)
(2.484505041 0.0001393133561 0)
(2.484195503 0.0001389769688 0)
(2.483886945 0.0001386411654 0)
(2.483579362 0.000138305845 0)
(2.48327275 0.0001379709102 0)
(2.482967105 0.0001376362708 0)
(2.482662424 0.000137301849 0)
(2.482358704 0.0001369675789 0)
(2.482055939 0.0001366334022 0)
(2.481754127 0.0001362992651 0)
(2.481453263 0.0001359651153 0)
(2.481153345 0.0001356308955 0)
(2.480854368 0.0001352965417 0)
(2.480556328 0.0001349619897 0)
(2.480259223 0.0001346271792 0)
(2.479963048 0.000134292051 0)
(2.479667799 0.0001339565459 0)
(2.479373475 0.0001336206025 0)
(2.47908007 0.0001332841631 0)
(2.478787582 0.0001329471816 0)
(2.478496008 0.0001326096246 0)
(2.478205344 0.0001322714652 0)
(2.477915587 0.0001319326817 0)
(2.477626734 0.0001315932573 0)
(2.477338782 0.00013125318 0)
(2.477051727 0.0001309124389 0)
(2.476765568 0.0001305710261 0)
(2.476480299 0.0001302289384 0)
(2.47619592 0.0001298861763 0)
(2.475912427 0.0001295427412 0)
(2.475629817 0.0001291986375 0)
(2.475348088 0.0001288538753 0)
(2.475067237 0.0001285084699 0)
(2.474787261 0.0001281624388 0)
(2.474508157 0.0001278158006 0)
(2.474229923 0.0001274685722 0)
(2.473952556 0.0001271207606 0)
(2.473676053 0.0001267723545 0)
(2.473400413 0.0001264233314 0)
(2.473125632 0.0001260736746 0)
(2.472851709 0.0001257233805 0)
(2.47257864 0.0001253724506 0)
(2.472306425 0.0001250208846 0)
(2.472035061 0.000124668678 0)
(2.471764545 0.0001243158229 0)
(2.471494877 0.0001239623124 0)
(2.471226054 0.000123608139 0)
(2.470958074 0.0001232532971 0)
(2.470690936 0.0001228977849 0)
(2.470424639 0.0001225416021 0)
(2.470159181 0.0001221847439 0)
(2.46989456 0.0001218271999 0)
(2.469630775 0.0001214689531 0)
(2.469367824 0.0001211099771 0)
(2.469105708 0.0001207502317 0)
(2.468844424 0.0001203896663 0)
(2.468583971 0.0001200282268 0)
(2.46832435 0.0001196658635 0)
(2.468065559 0.0001193025371 0)
(2.467807598 0.0001189382235 0)
(2.467550466 0.000118572912 0)
(2.467294165 0.0001182065948 0)
(2.467038693 0.0001178392517 0)
(2.466784051 0.0001174708437 0)
(2.466530239 0.0001171013144 0)
(2.466277258 0.0001167305941 0)
(2.466025107 0.0001163586019 0)
(2.465773788 0.0001159852504 0)
(2.465523302 0.0001156104487 0)
(2.465273649 0.0001152341008 0)
(2.465024832 0.0001148561073 0)
(2.464776851 0.0001144763619 0)
(2.46452971 0.000114094752 0)
(2.464283409 0.0001137111598 0)
(2.464037951 0.0001133254602 0)
(2.463793338 0.0001129375182 0)
(2.463549574 0.0001125471895 0)
(2.463306661 0.0001121543232 0)
(2.463064603 0.000111758761 0)
(2.462823404 0.0001113603359 0)
(2.462583067 0.0001109588733 0)
(2.462343598 0.0001105541932 0)
(2.462105001 0.0001101461075 0)
(2.461867282 0.0001097344155 0)
(2.461630446 0.0001093189021 0)
(2.461394499 0.0001088993394 0)
(2.461159448 0.0001084754861 0)
(2.4609253 0.0001080470876 0)
(2.460692062 0.0001076138765 0)
(2.460459743 0.0001071755741 0)
(2.460228351 0.0001067318864 0)
(2.459997895 0.0001062825008 0)
(2.459768385 0.0001058270842 0)
(2.45953983 0.0001053652835 0)
(2.459312243 0.0001048967227 0)
(2.459085634 0.0001044209984 0)
(2.458860015 0.0001039376819 0)
(2.458635401 0.0001034463216 0)
(2.458411805 0.000102946444 0)
(2.458189242 0.0001024375559 0)
(2.457967727 0.0001019191425 0)
(2.457747278 0.0001013906679 0)
(2.457527913 0.0001008515751 0)
(2.45730965 0.0001003012826 0)
(2.45709251 9.973917807e-05 0)
(2.456876514 9.916461574e-05 0)
(2.456661683 9.857691314e-05 0)
(2.456448042 9.797534611e-05 0)
(2.456235615 9.735914312e-05 0)
(2.456024428 9.672748445e-05 0)
(2.455814508 9.607950587e-05 0)
(2.455605885 9.54143024e-05 0)
(2.455398589 9.473092971e-05 0)
(2.455192654 9.402840338e-05 0)
(2.454988112 9.330569552e-05 0)
(2.454785001 9.256172769e-05 0)
(2.454583358 9.179536482e-05 0)
(2.454383224 9.100541261e-05 0)
(2.454184642 9.019061541e-05 0)
(2.453987655 8.93496516e-05 0)
(2.453792313 8.84811277e-05 0)
(2.453598663 8.758357578e-05 0)
(2.453406759 8.665545218e-05 0)
(2.453216655 8.569513328e-05 0)
(2.45302841 8.470091017e-05 0)
(2.452842085 8.367098524e-05 0)
(2.452657745 8.260346901e-05 0)
(2.452475457 8.149637183e-05 0)
(2.452295292 8.034759991e-05 0)
(2.452117327 7.915494658e-05 0)
(2.451941639 7.791608666e-05 0)
(2.451768314 7.662857223e-05 0)
(2.451597438 7.52898233e-05 0)
(2.451429105 7.389712122e-05 0)
(2.451263411 7.24476036e-05 0)
(2.451100461 7.09382573e-05 0)
(2.450940362 6.936591371e-05 0)
(2.450783228 6.772724369e-05 0)
(2.45062918 6.601874413e-05 0)
(2.450478344 6.423672749e-05 0)
(2.450330854 6.237731511e-05 0)
(2.45018685 6.043642448e-05 0)
(2.45004648 5.840975067e-05 0)
(2.449909899 5.629275438e-05 0)
(2.449777271 5.408065235e-05 0)
(2.449648768 5.176839957e-05 0)
(2.449524573 4.93506643e-05 0)
(2.449404877 4.682180657e-05 0)
(2.44928988 4.41758559e-05 0)
(2.449179797 4.14064905e-05 0)
(2.44907485 3.850701737e-05 0)
(2.448975276 3.547035217e-05 0)
(2.448881325 3.228898534e-05 0)
(2.448793259 2.895494361e-05 0)
(2.448711356 2.545974979e-05 0)
(2.448635909 2.179439031e-05 0)
(2.448567227 1.794931722e-05 0)
(2.448505638 1.391453252e-05 0)
(2.448451493 9.680667996e-06 0)
(2.448405142 5.234404397e-06 0)
(2.448366983 5.664237687e-07 0)
(2.448337478 -4.361949212e-06 0)
(2.448317156 -9.623459565e-06 0)
(2.44830654 -1.543654305e-05 0)
(2.448306888 -2.20358744e-05 0)
(2.448319359 -2.940465622e-05 0)
(2.448344368 -3.722204948e-05 0)
(2.448382546 -4.533428871e-05 0)
(2.448434539 -5.374121818e-05 0)
(2.448501003 -6.247150092e-05 0)
(2.448582625 -7.15788108e-05 0)
(2.448680117 -8.112843515e-05 0)
(2.448794243 -9.115387193e-05 0)
(2.44892582 -0.0001016856912 0)
(2.449075685 -0.0001127400383 0)
(2.449244742 -0.0001243343707 0)
(2.449433952 -0.0001364949819 0)
(2.449644332 -0.0001492567736 0)
(2.449876961 -0.0001626606347 0)
(2.450132985 -0.0001767506502 0)
(2.450413624 -0.0001915724648 0)
(2.450720176 -0.0002071729165 0)
(2.451054022 -0.0002236005365 0)
(2.451416629 -0.0002409065144 0)
(2.45180956 -0.0002591457037 0)
(2.452234473 -0.0002783773126 0)
(2.452693133 -0.0002986652588 0)
(2.453187415 -0.0003200783346 0)
(2.453719314 -0.0003426904023 0)
(2.454290957 -0.0003665807062 0)
(2.454904607 -0.0003918343607 0)
(2.45556268 -0.0004185429825 0)
(2.456267753 -0.0004468054674 0)
(2.45702258 -0.0004767288469 0)
(2.457830106 -0.0005084292415 0)
(2.458693482 -0.0005420328803 0)
(2.459616084 -0.0005776772338 0)
(2.460601534 -0.0006155122334 0)
(2.46165372 -0.0006557016525 0)
(2.462776823 -0.0006984246637 0)
(2.463975342 -0.0007438776675 0)
(2.465254127 -0.0007922763772 0)
(2.466618415 -0.0008438582656 0)
(2.468073867 -0.000898885404 0)
(2.469626615 -0.0009576478267 0)
(2.47128331 -0.00102046743 0)
(2.473051183 -0.001087702587 0)
(2.47493811 -0.001159753601 0)
(2.47695269 -0.00123706916 0)
(2.479104331 -0.001320154125 0)
(2.481403356 -0.001409578837 0)
(2.483861123 -0.001505990442 0)
(2.486490164 -0.001610126712 0)
(2.489304357 -0.001722833188 0)
(2.492319122 -0.001845084443 0)
(2.495551664 -0.001978010872 0)
(2.499021265 -0.002122932713 0)
(2.502749638 -0.002281403972 0)
(2.506761369 -0.002455269648 0)
(2.511084472 -0.002646741646 0)
(2.515751084 -0.002858500991 0)
(2.520798369 -0.003093838386 0)
(2.52626969 -0.003356851232 0)
(2.532216186 -0.003652726932 0)
(2.538698901 -0.003988161587 0)
(2.545791773 -0.004371999416 0)
(2.553585926 -0.00481624453 0)
(2.562196044 -0.005337730395 0)
(2.571770236 -0.005961003216 0)
(2.58250598 -0.006723559072 0)
(2.594677201 -0.007685837527 0)
(2.608678415 -0.008951791957 0)
(2.625108478 -0.01073855435 0)
(2.647889396 -0.01332147791 0)
(3.600332368 0.001579793198 0)
(3.601024118 0.002553366322 0)
(3.601558046 0.003025839339 0)
(3.60186849 0.003344975795 0)
(3.602064949 0.003597973238 0)
(3.602205013 0.003799722244 0)
(3.60229579 0.003968091174 0)
(3.60233792 0.004116914991 0)
(3.602337068 0.004251899839 0)
(3.602299562 0.004378762451 0)
(3.602230023 0.004500346178 0)
(3.602132012 0.004619038293 0)
(3.602007972 0.004735305997 0)
(3.601859211 0.004849419457 0)
(3.601686533 0.004961624123 0)
(3.6014904 0.005072091574 0)
(3.601271019 0.005180905797 0)
(3.601028448 0.005288077774 0)
(3.600762573 0.005393552922 0)
(3.600473155 0.005497224176 0)
(3.600159711 0.005598976368 0)
(3.59982139 0.00569868966 0)
(3.599457276 0.005796320043 0)
(3.59906661 0.005891839859 0)
(3.598648669 0.005985185836 0)
(3.598202534 0.006076263313 0)
(3.597727344 0.006164972426 0)
(3.597222301 0.006251230875 0)
(3.596686464 0.006334966877 0)
(3.596118909 0.00641611677 0)
(3.595518637 0.006494617196 0)
(3.594884679 0.006570390955 0)
(3.5942162 0.00664331479 0)
(3.593512401 0.006713332632 0)
(3.592772433 0.006780492862 0)
(3.591995446 0.006844822176 0)
(3.591180658 0.006906325884 0)
(3.590327352 0.00696501707 0)
(3.589434838 0.00702091766 0)
(3.588502477 0.007074046727 0)
(3.587529693 0.00712442674 0)
(3.586515984 0.007172089067 0)
(3.585460916 0.007217073753 0)
(3.584364123 0.007259434445 0)
(3.583225283 0.007299256733 0)
(3.582044091 0.007336665008 0)
(3.580820269 0.00737174513 0)
(3.579553637 0.007404511128 0)
(3.578244093 0.007434965162 0)
(3.576891608 0.007463142145 0)
(3.5754962 0.007489098965 0)
(3.574057922 0.007512883037 0)
(3.57257689 0.007534542706 0)
(3.571053285 0.007554137561 0)
(3.569487332 0.00757173596 0)
(3.567879294 0.007587405022 0)
(3.566229466 0.007601208351 0)
(3.564538183 0.00761320757 0)
(3.562805816 0.007623463094 0)
(3.561032768 0.007632034034 0)
(3.559219474 0.007638978095 0)
(3.557366398 0.007644351659 0)
(3.555474031 0.007648209848 0)
(3.553542887 0.007650606488 0)
(3.551573508 0.007651593824 0)
(3.549566453 0.007651221942 0)
(3.547522303 0.007649537874 0)
(3.545441661 0.0076465847 0)
(3.54332515 0.007642402103 0)
(3.54117341 0.007637043745 0)
(3.538987088 0.007630576017 0)
(3.53676683 0.007623055669 0)
(3.534513285 0.007614522633 0)
(3.532227111 0.007605008294 0)
(3.529908972 0.007594542133 0)
(3.527559536 0.007583153233 0)
(3.525179471 0.007570870356 0)
(3.522769447 0.00755772246 0)
(3.520330133 0.007543739535 0)
(3.517862191 0.007528953265 0)
(3.515366276 0.007513396853 0)
(3.512843031 0.007497084387 0)
(3.510293103 0.007480019017 0)
(3.507717141 0.007462213242 0)
(3.505115793 0.007443689817 0)
(3.502489696 0.007424473908 0)
(3.499839482 0.00740458874 0)
(3.497165769 0.007384054389 0)
(3.49446917 0.007362888528 0)
(3.491750289 0.007341107864 0)
(3.489009719 0.007318728429 0)
(3.486248044 0.007295765136 0)
(3.483465835 0.007272231526 0)
(3.480663654 0.007248139804 0)
(3.477842051 0.007223500802 0)
(3.475001565 0.007198323356 0)
(3.472142721 0.00717261257 0)
(3.469266021 0.007146364661 0)
(3.46637194 0.00711958822 0)
(3.463460935 0.007092432555 0)
(3.460533466 0.007065122923 0)
(3.457589993 0.007037817854 0)
(3.454630926 0.007010829265 0)
(3.451656771 0.006981586614 0)
(3.448668209 0.006948006604 0)
(3.445665851 0.006913074359 0)
(3.442650234 0.006878749841 0)
(3.439621895 0.006844587235 0)
(3.436581351 0.006810407183 0)
(3.43352912 0.00677612702 0)
(3.430465724 0.006741694249 0)
(3.427391676 0.006707073503 0)
(3.42430748 0.006672241429 0)
(3.421213632 0.006637182785 0)
(3.418110621 0.006601888479 0)
(3.414998931 0.006566353134 0)
(3.411879037 0.006530569494 0)
(3.408751416 0.006494529844 0)
(3.405616543 0.006458229184 0)
(3.402474894 0.006421665156 0)
(3.399326937 0.006384835857 0)
(3.396173139 0.006347738881 0)
(3.393013958 0.006310371617 0)
(3.389849849 0.0062727316 0)
(3.386681264 0.006234816452 0)
(3.383508648 0.006196623766 0)
(3.380332442 0.006158151126 0)
(3.377153085 0.006119396235 0)
(3.373971009 0.00608035694 0)
(3.370786646 0.006041031249 0)
(3.367600421 0.006001417376 0)
(3.364412758 0.005961513803 0)
(3.361224079 0.005921319228 0)
(3.358034801 0.005880832504 0)
(3.354845339 0.00584005263 0)
(3.351656107 0.005798978797 0)
(3.348467516 0.005757610347 0)
(3.345279974 0.005715946761 0)
(3.342093889 0.00567398771 0)
(3.338909663 0.005631733061 0)
(3.335727703 0.005589182925 0)
(3.332548408 0.005546337627 0)
(3.329372181 0.005503197655 0)
(3.32619942 0.005459763637 0)
(3.323030524 0.005416036324 0)
(3.319865891 0.005372016485 0)
(3.316705918 0.005327704775 0)
(3.313551003 0.00528310167 0)
(3.310401542 0.005238207601 0)
(3.307257931 0.005193023879 0)
(3.304120565 0.005147551755 0)
(3.300989828 0.005101790111 0)
(3.297866105 0.005055755236 0)
(3.294749786 0.00500949134 0)
(3.291641272 0.004962997264 0)
(3.288540963 0.004916260765 0)
(3.28544925 0.00486928636 0)
(3.282366517 0.004822097623 0)
(3.279293147 0.004774692813 0)
(3.276229528 0.004727069388 0)
(3.27317605 0.004679227856 0)
(3.270133101 0.004631170849 0)
(3.267101068 0.004582901415 0)
(3.264080336 0.00453442159 0)
(3.261071295 0.004485734584 0)
(3.25807433 0.004436845901 0)
(3.255089826 0.004387762643 0)
(3.252118166 0.004338493039 0)
(3.249159729 0.004289046703 0)
(3.24621489 0.004239435406 0)
(3.243284021 0.004189674198 0)
(3.240367486 0.004139783378 0)
(3.237465637 0.004089792057 0)
(3.234578805 0.004039744599 0)
(3.231707269 0.003989711626 0)
(3.228851157 0.003939809737 0)
(3.226010718 0.003890189321 0)
(3.223186659 0.003840907133 0)
(3.220379721 0.003791883898 0)
(3.217590222 0.003743011221 0)
(3.214818263 0.003694238874 0)
(3.212063978 0.003645566844 0)
(3.209327545 0.003597009955 0)
(3.206609159 0.003548584171 0)
(3.203909013 0.003500306693 0)
(3.201227296 0.003452197008 0)
(3.198564189 0.003404276829 0)
(3.19591987 0.003356571324 0)
(3.193294502 0.003309109072 0)
(3.190688243 0.00326190305 0)
(3.18810125 0.003214946087 0)
(3.185533672 0.003168263433 0)
(3.182985648 0.003121883494 0)
(3.1804573 0.003075832044 0)
(3.177948742 0.003030132433 0)
(3.175460079 0.00298480696 0)
(3.172991405 0.002939877427 0)
(3.170542805 0.002895365149 0)
(3.168114353 0.002851290869 0)
(3.165706113 0.002807674715 0)
(3.163318139 0.002764536233 0)
(3.160950474 0.002721894458 0)
(3.158603153 0.002679768071 0)
(3.156276196 0.002638175551 0)
(3.153969617 0.002597135059 0)
(3.151683416 0.002556663693 0)
(3.149417585 0.002516777412 0)
(3.147172106 0.00247749137 0)
(3.144946951 0.002438820139 0)
(3.142742081 0.0024007777 0)
(3.140557451 0.002363377346 0)
(3.138393002 0.002326631626 0)
(3.136248668 0.002290552336 0)