/*--------------------------------*- C++ -*----------------------------------*\
| =========                 |                                                 |
| \\      /  F ield         | OpenFOAM: The Open Source CFD Toolbox           |
|  \\    /   O peration     | Version:  2312                                  |
|   \\  /    A nd           | Website:  www.openfoam.com                      |
|    \\/     M anipulation  |                                                 |
\*---------------------------------------------------------------------------*/
FoamFile
{
    version     2.0;
    format      ascii;
    arch        "LSB;label=32;scalar=64";
    class       surfaceScalarField;
    location    "2000";
    object      phi;
}
// * * * * * * * * * * * * * * * * * * * * * * * * * * * * * * * * * * * * * //

dimensions      [0 3 -1 0 0 0 0];

oriented        oriented;

internalField   nonuniform List<scalar> 
158029
(
-4.621878661e-08
4.621878661e-08
-5.736145911e-08
1.114267571e-08
-2.063130017e-08
-3.673015736e-08
-2.004489136e-08
-5.864070938e-10
-1.174965083e-07
9.745162049e-08
-9.356688114e-08
-2.392962369e-08
-4.649169759e-08
-4.707518159e-08
-1.852882572e-09
-4.463881352e-08
-4.463299271e-08
4.278011092e-08
-7.419664521e-08
2.956365343e-08
4.030066138e-09
-7.822671023e-08
1.719444849e-08
-1.316438118e-08
1.812528684e-08
-9.308378291e-10
5.130153755e-10
1.761227172e-08
-5.77400705e-09
6.287022746e-09
9.496456416e-09
-1.527046303e-08
8.656569537e-09
8.398872294e-10
6.359486188e-09
2.297083635e-09
7.831074939e-09
-1.471588486e-09
6.475161109e-09
1.35591405e-09
1.670314769e-08
-1.022798654e-08
3.119110122e-08
-1.448795353e-08
-2.934747216e-09
3.41258483e-08
-4.193815045e-08
3.900340321e-08
-1.061870357e-08
-3.131944693e-08
2.472831427e-08
-3.534701784e-08
1.363914221e-08
1.108917201e-08
-1.32476344e-08
2.688677657e-08
-1.56886979e-08
2.441063447e-09
-4.447659956e-09
-1.124103798e-08
5.715736661e-09
-1.016339666e-08
5.580034787e-09
1.357018012e-10
5.15530644e-09
4.247282727e-10
5.224867428e-09
-6.956106292e-11
3.719542554e-09
1.505324817e-09
6.986391062e-09
-3.266848575e-09
2.386018584e-08
-1.687379484e-08
2.160998055e-08
2.250205189e-09
8.608300416e-09
1.300168009e-08
1.149993285e-09
7.458307085e-09
-6.267873571e-09
7.417866801e-09
1.793991065e-08
-2.420778438e-08
5.04414821e-08
-3.250157157e-08
2.914361554e-08
2.129786644e-08
8.002474419e-09
2.114114107e-08
-2.852971131e-09
1.085544549e-08
-3.12626412e-09
2.73292922e-10
1.231429804e-08
-1.544056228e-08
1.93055011e-08
-6.991203175e-09
1.434645659e-08
4.95904443e-09
-1.526731449e-10
1.449912969e-08
-1.351672538e-09
1.198999362e-09
-5.33876482e-10
-8.177960731e-10
-1.32910251e-09
7.95226008e-10
-4.55579166e-09
3.226689188e-09
-7.684398751e-09
3.128607129e-09
-1.033828188e-08
2.653883224e-09
-1.263084797e-08
2.292566143e-09
-1.463356759e-08
2.002719735e-09
-1.636726369e-08
1.733696159e-09
-1.783026352e-08
1.462999946e-09
-1.90149141e-08
1.184650632e-09
-1.991266696e-08
8.977529717e-10
-2.051131875e-08
5.986518419e-10
-2.079868993e-08
2.873712752e-10
-2.077290039e-08
-2.578951896e-11
-2.065546208e-08
-1.174382402e-10
-2.029851986e-08
-3.569422159e-10
-1.965766816e-08
-6.408516544e-10
-1.870261734e-08
-9.550508274e-10
-1.741825891e-08
-1.284358399e-09
-1.580911205e-08
-1.60914688e-09
-1.389829125e-08
-1.910820759e-09
-1.172620156e-08
-2.172089698e-09
-9.353329541e-09
-2.372871968e-09
-6.841819782e-09
-2.511509732e-09
-4.145514589e-09
-2.69630509e-09
-1.327320554e-09
-2.818193934e-09
2.59040386e-09
-3.917724217e-09
6.61030659e-09
-4.01990259e-09
9.911118073e-09
-3.300811234e-09
1.275998783e-08
-2.848869643e-09
1.521733249e-08
-2.457344387e-09
1.730094293e-08
-2.083610329e-09
1.901509222e-08
-1.714149014e-09
2.036323996e-08
-1.348147655e-09
2.135589426e-08
-9.926540466e-10
2.201578144e-08
-6.598871044e-10
2.238033394e-08
-3.645522893e-10
2.249917229e-08
-1.188382763e-10
2.245320257e-08
4.596992857e-11
2.231460622e-08
1.385964567e-10
2.202408113e-08
2.905252903e-10
2.154284045e-08
4.81240812e-10
2.085263551e-08
6.902051094e-10
1.995057351e-08
9.020621215e-10
1.884378395e-08
1.106789677e-09
1.754522738e-08
1.298556671e-09
1.607084597e-08
1.474381464e-09
1.443784081e-08
1.633005218e-09
1.266373955e-08
1.774101255e-09
1.076667235e-08
1.897067201e-09
8.768626847e-09
1.998045442e-09
6.701016641e-09
2.067610154e-09
4.587311946e-09
2.113704598e-09
2.309995364e-09
2.277316467e-09
2.441318966e-10
2.065863318e-09
-2.095447794e-09
2.339579503e-09
-4.947720124e-09
2.852272148e-09
-7.691914866e-09
2.744194556e-09
-1.020005328e-08
2.508138256e-09
-1.251241981e-08
2.312366351e-09
-1.466132863e-08
2.148908702e-09
-1.665568842e-08
1.994359631e-09
-1.849182384e-08
1.83613536e-09
-2.016059399e-08
1.668770018e-09
-2.165092065e-08
1.490326637e-09
-2.29515566e-08
1.300635837e-09
-2.405195284e-08
1.100396238e-09
-2.494274939e-08
8.907964268e-10
-2.561640895e-08
6.736595484e-10
-2.606901319e-08
4.526040791e-10
-2.63055015e-08
2.364882624e-10
-2.634854547e-08
4.30437485e-11
-2.625817156e-08
-9.037401298e-11
-2.600450635e-08
-2.536654947e-10
-2.553145734e-08
-4.73049161e-10
-2.479798724e-08
-7.334704413e-10
-2.378080889e-08
-1.017178537e-09
-2.24730736e-08
-1.307735668e-09
-2.08804319e-08
-1.592641904e-09
-1.901668012e-08
-1.863752147e-09
-1.690002871e-08
-2.116651569e-09
-1.454993409e-08
-2.350094905e-09
-1.198570842e-08
-2.564225757e-09
-9.231191899e-09
-2.754516722e-09
-6.326247842e-09
-2.90494411e-09
-3.284205921e-09
-3.042042072e-09
-3.406090211e-11
-3.250145068e-09
3.902819711e-09
-3.936880754e-09
7.55846315e-09
-3.655643497e-09
1.08421849e-08
-3.28372196e-09
1.382653716e-08
-2.984352379e-09
1.6543934e-08
-2.71739718e-09
1.899946985e-08
-2.455536123e-09
2.118482533e-08
-2.185355954e-09
2.308655091e-08
-1.901725949e-09
2.469163726e-08
-1.605086872e-09
2.599174297e-08
-1.30010609e-09
2.698666719e-08
-9.949247049e-10
2.768749015e-08
-7.008232286e-10
2.811918549e-08
-4.316956874e-10
2.832208101e-08
-2.028955932e-10
2.835009357e-08
-2.80126913e-11
2.827403336e-08
7.606040275e-11
2.807023598e-08
2.037974661e-10
2.770386586e-08
3.663705403e-10
2.715406224e-08
5.498038348e-10
2.641199861e-08
7.420641445e-10
2.54772636e-08
9.347352168e-10
2.435479911e-08
1.122464924e-09
2.305289868e-08
1.301900518e-09
2.158207297e-08
1.470825975e-09
1.995434049e-08
1.627732373e-09
1.818263007e-08
1.771710443e-09
1.62801014e-08
1.902528354e-09
1.425933389e-08
2.020767278e-09
1.213159566e-08
2.127737763e-09
9.907487124e-09
2.224108163e-09
7.602824931e-09
2.304661708e-09
5.251278207e-09
2.351546345e-09
2.868818977e-09
2.382458858e-09
3.739261992e-10
2.494892532e-09
-2.176783881e-09
2.550709931e-09
-4.988375895e-09
2.811592041e-09
-7.809827701e-09
2.821451915e-09
-1.048198645e-08
2.672159059e-09
-1.300331782e-08
2.521331658e-09
-1.539508111e-08
2.391763768e-09
-1.766589058e-08
2.270809829e-09
-1.981294352e-08
2.147053465e-09
-2.182727527e-08
2.014332098e-09
-2.369722078e-08
1.869946007e-09
-2.541026179e-08
1.713041303e-09
-2.695402632e-08
1.543764967e-09
-2.831697181e-08
1.362945755e-09
-2.948894498e-08
1.171973537e-09
-3.046165994e-08
9.727152071e-10
-3.122916503e-08
7.675053818e-10
-3.17885221e-08
5.593572962e-10
-3.21415943e-08
3.530723766e-10
-3.230061143e-08
1.590173135e-10
-3.229752244e-08
-3.088911411e-12
-3.217716842e-08
-1.203538934e-10
-3.18715322e-08
-3.056362655e-10
-3.1330536e-08
-5.409961817e-10
-3.051713929e-08
-8.133969215e-10
-2.940935096e-08
-1.107788469e-09
-2.799938715e-08
-1.409964232e-09
-2.62908545e-08
-1.708532954e-09
-2.429537917e-08
-1.995475857e-09
-2.2029437e-08
-2.265942522e-09
-1.951132959e-08
-2.518107879e-09
-1.675811063e-08
-2.753219194e-09
-1.378280995e-08
-2.975300993e-09
-1.059418199e-08
-3.18862808e-09
-7.203222092e-09
-3.390960106e-09
-3.604204694e-09
-3.599017516e-09
3.30948519e-10
-3.935153492e-09
4.769651575e-09
-4.438703322e-09
8.810657999e-09
-4.041006846e-09
1.248123803e-08
-3.670580406e-09
1.585687552e-08
-3.375638128e-09
1.897479456e-08
-3.117919648e-09
2.184239312e-08
-2.867599492e-09
2.445119864e-08
-2.608806424e-09
2.678564029e-08
-2.334442817e-09
2.882856654e-08
-2.04292734e-09
3.056493279e-08
-1.736367497e-09
3.198492392e-08
-1.419992234e-09
3.308700291e-08
-1.102080107e-09
3.388100141e-08
-7.939994358e-10
3.439074092e-08
-5.097403473e-10
3.465551589e-08
-2.647755981e-10
3.473049328e-08
-7.497785804e-11
3.467607312e-08
5.441989677e-11
3.450284569e-08
1.732273364e-10
3.416644711e-08
3.363986235e-10
3.364208172e-08
5.243655363e-10
3.291866265e-08
7.234192623e-10
3.199408504e-08
9.245778102e-10
3.087186396e-08
1.122221262e-09
2.955911748e-08
1.312746609e-09
2.806542325e-08
1.493694326e-09
2.640211508e-08
1.663308232e-09
2.45817722e-08
1.820342933e-09
2.261776233e-08
1.964009964e-09
2.052374177e-08
2.094020676e-09
1.83130142e-08
2.210727831e-09
1.599768213e-08
2.315332395e-09
1.358763673e-08
2.410045887e-09
1.108986107e-08
2.49777625e-09
8.509792487e-09
2.580069323e-09
5.856789542e-09
2.653003777e-09
3.12587454e-09
2.730915927e-09
2.267592033e-10
2.899116371e-09
-2.777421325e-09
3.004181588e-09
-5.804731093e-09
3.027310762e-09
-8.750060127e-09
2.945329855e-09
-1.155165852e-08
2.80159918e-09
-1.422211555e-08
2.670457673e-09
-1.677880128e-08
2.556686366e-09
-1.922802398e-08
2.449223169e-09
-2.15671271e-08
2.339103572e-09
-2.378813595e-08
2.22100914e-09
-2.588028506e-08
2.092149409e-09
-2.783171265e-08
1.951427784e-09
-2.963043607e-08
1.798723675e-09
-3.126495704e-08
1.634521232e-09
-3.272469778e-08
1.459741114e-09
-3.40003686e-08
1.275671307e-09
-3.508436953e-08
1.084001569e-09
-3.597122916e-08
8.868603887e-10
-3.665797934e-08
6.867510924e-10
-3.714457242e-08
4.865940137e-10
-3.743577987e-08
2.912084882e-10
-3.754878347e-08
1.130045061e-10
-3.752011844e-08
-2.866403009e-11
-3.737188678e-08
-1.482308504e-10
-3.702893433e-08
-3.429515059e-10
-3.644108068e-08
-5.878529111e-10
-3.557398306e-08
-8.670966829e-10
-3.440740237e-08
-1.166579989e-09
-3.293391818e-08
-1.47348331e-09
-3.115646833e-08
-1.777449285e-09
-2.908549429e-08
-2.070973302e-09
-2.673622167e-08
-2.349272238e-09
-2.412606663e-08
-2.610154465e-09
-2.127191677e-08
-2.854149579e-09
-1.818701062e-08
-3.084905603e-09
-1.487737435e-08
-3.309635843e-09
-1.133892826e-08
-3.538445279e-09
-7.559388209e-09
-3.779539141e-09
-3.504850409e-09
-4.054536395e-09
1.031096941e-09
-4.535945719e-09
5.830444166e-09
-4.799345283e-09
1.013067498e-08
-4.300229225e-09
1.406722431e-08
-3.936547852e-09
1.772476814e-08
-3.657542839e-09
2.113985511e-08
-3.41508593e-09
2.431918332e-08
-3.179327596e-09
2.725365337e-08
-2.934469219e-09
2.992624125e-08
-2.672587374e-09
3.231706358e-08
-2.390821529e-09
3.440710054e-08
-2.090036503e-09
3.618087567e-08
-1.773774411e-09
3.762892822e-08
-1.448052243e-09
3.875053697e-08
-1.121608239e-09
3.955664089e-08
-8.06103827e-10
4.007248757e-08
-5.158464049e-10
4.033928868e-08
-2.668011678e-10
4.041520393e-08
-7.59150642e-11
4.035920618e-08
5.599776609e-11
4.017723127e-08
1.819752632e-10
3.982369742e-08
3.535341863e-10
3.927319994e-08
5.504982124e-10
3.851387976e-08
7.593209573e-10
3.75426479e-08
9.712330107e-10
3.636188944e-08
1.180759531e-09
3.497750541e-08
1.384385369e-09
3.33978199e-08
1.579686573e-09
3.163295935e-08
1.764861795e-09
2.969442445e-08
1.938535818e-09
2.759470849e-08
2.09971711e-09
2.53468432e-08
2.24786618e-09
2.296379872e-08
2.383045706e-09
2.045764323e-08
2.506156462e-09
1.783839444e-08
2.619250077e-09
1.51125251e-08
2.725870355e-09
1.228144683e-08
2.831079502e-09
9.341474293e-09
2.939973511e-09
6.288041715e-09
3.053433718e-09
3.100861305e-09
3.187181422e-09
-1.323742841e-10
3.233236834e-09
-3.544639725e-09
3.412266726e-09
-6.998094885e-09
3.45345654e-09
-1.029903652e-08
3.300942957e-09
-1.342659905e-08
3.127564169e-09
-1.640898865e-08
2.982391232e-09
-1.926852824e-08
2.859541565e-09
-2.201348257e-08
2.744956118e-09
-2.464192617e-08
2.628445579e-09
-2.714620085e-08
2.50427623e-09
-2.951559817e-08
2.369398993e-09
-3.173792692e-08
2.222329911e-09
-3.380059427e-08
2.062668758e-09
-3.56913255e-08
1.890732177e-09
-3.739866569e-08
1.707341481e-09
-3.891241663e-08
1.513751769e-09
-4.022406848e-08
1.311653014e-09
-4.132724235e-08
1.1031745e-09
-4.22180853e-08
8.908438774e-10
-4.289551482e-08
6.774299e-10
-4.336169122e-08
4.66177102e-10
-4.362512924e-08
2.63438252e-10
-4.371122512e-08
8.609654715e-11
-4.365788214e-08
-5.334259815e-11
-4.346062211e-08
-1.972590523e-10
-4.30468768e-08
-4.137444484e-10
-4.236282636e-08
-6.840488669e-10
-4.137305152e-08
-9.897733517e-10
-4.005813366e-08
-1.314915669e-09
-3.841183939e-08
-1.64629232e-09
-3.64381872e-08
-1.973649728e-09
-3.414853485e-08
-2.289650389e-09
-3.155891673e-08
-2.589615777e-09
-2.868752668e-08
-2.871388275e-09
-2.555203775e-08
-3.135486665e-09
-2.216639937e-08
-3.385636555e-09
-1.853676288e-08
-3.629634023e-09
-1.465635286e-08
-3.88040793e-09
-1.049965185e-08
-4.156698333e-09
-6.01105414e-09
-4.488595421e-09
-9.511073071e-10
-5.059944072e-09
4.574802804e-09
-5.525907974e-09
9.635717067e-09
-5.060912262e-09
1.418946274e-08
-4.553744696e-09
1.840490236e-08
-4.215438274e-09
2.235137359e-08
-3.94647059e-09
2.605214694e-08
-3.700771835e-09
2.950625809e-08
-3.454110095e-09
3.270005002e-08
-3.193789734e-09
3.561383517e-08
-2.913783421e-09
3.82259734e-08
-2.6121354e-09
4.051594724e-08
-2.289971712e-09
4.246701259e-08
-1.951062418e-09
4.406863718e-08
-1.601622715e-09
4.531918925e-08
-1.2505496e-09
4.622897959e-08
-9.097889275e-10
4.682317989e-08
-5.941981623e-10
4.714373235e-08
-3.205511514e-10
4.725083978e-08
-1.071052059e-10
4.721069781e-08
4.014340746e-11
4.704432516e-08
1.663749757e-10
4.66979128e-08
3.464137527e-10
4.61422178e-08
5.556972304e-10
4.536314117e-08
7.790777637e-10
4.435617559e-08
1.006967611e-09
4.312272887e-08
1.233447632e-09
4.166799607e-08
1.454734856e-09
3.999977713e-08
1.668220039e-09
3.812780135e-08
1.871978397e-09
3.60632597e-08
2.064543521e-09
3.381843062e-08
2.244832794e-09
3.140626127e-08
2.412172337e-09
2.883987707e-08
2.566389081e-09
2.613188733e-08
2.707993625e-09
2.329341034e-08
2.83848239e-09
2.033262361e-08
2.960790569e-09
1.725277334e-08
3.079855307e-09
1.404975487e-08
3.203021981e-09
1.071073079e-08
3.33902908e-09
7.218632601e-09
3.492102421e-09
3.557390996e-09
3.661247761e-09
-1.684938152e-10
3.725891008e-09
-4.06620459e-09
3.89771876e-09
-7.979423219e-09
3.913225208e-09
-1.170106848e-08
3.721652375e-09
-1.522484997e-08
3.523786346e-09
-1.858969711e-08
3.364853408e-09
-2.182435895e-08
3.234664889e-09
-2.494092008e-08
3.11656558e-09
-2.793954387e-08
2.998624446e-09
-3.081315162e-08
2.873610001e-09
-3.355076885e-08
2.737615363e-09
-3.6139527e-08
2.588758529e-09
-3.856583504e-08
2.426304687e-09
-4.081612003e-08
2.250284961e-09
-4.287740079e-08
2.061277657e-09
-4.473770321e-08
1.860303616e-09
-4.638647525e-08
1.648770408e-09
-4.781501028e-08
1.428538083e-09
-4.901695799e-08
1.201947979e-09
-4.998871482e-08
9.717618053e-10
-5.072954729e-08
7.408345091e-10
-5.124184033e-08
5.122994193e-10
-5.153433597e-08
2.924985942e-10
-5.163377035e-08
9.944083351e-11
-5.158238371e-08
-5.138436373e-11
-5.137616616e-08
-2.062121935e-10
-5.093313985e-08
-4.430245569e-10
-5.019245016e-08
-7.406839627e-10
-4.91129638e-08
-1.079482947e-09
-4.767057399e-08
-1.44238146e-09
-4.585590269e-08
-1.814664699e-09
-4.367114922e-08
-2.184742286e-09
-4.112682015e-08
-2.544320085e-09
-3.823876434e-08
-2.888043701e-09
-3.502544352e-08
-3.213312159e-09
-3.150500796e-08
-3.520425378e-09
-2.769176593e-08
-3.813235901e-09
-2.359142295e-08
-4.100336021e-09
-1.919440946e-08
-4.397010594e-09
-1.446627672e-08
-4.728128846e-09
-9.333205262e-09
-5.133070818e-09
-3.622538204e-09
-5.710664833e-09
2.84005232e-09
-6.462590915e-09
9.163565296e-09
-6.323511087e-09
1.469044235e-08
-5.526878091e-09
1.97381312e-08
-5.047687492e-09
2.443840078e-08
-4.700272566e-09
2.884435961e-08
-4.405959319e-09
3.296940704e-08
-4.125053612e-09
3.680573609e-08
-3.836331997e-09
4.033461057e-08
-3.528882708e-09
4.353270994e-08
-3.198102211e-09
4.637619872e-08
-2.843495676e-09
4.884380481e-08
-2.467605842e-09
5.091950627e-08
-2.075705304e-09
5.259538017e-08
-1.675870789e-09
5.387474626e-08
-1.279368401e-09
5.477572614e-08
-9.009767935e-10
5.533431069e-08
-5.585887071e-10
5.560614483e-08
-2.718335684e-10
5.566757953e-08
-6.144073153e-11
5.558048013e-08
8.70998084e-11
5.532749369e-08
2.529822811e-10
5.485949369e-08
4.680041416e-10
5.414982201e-08
7.096718154e-10
5.318662206e-08
9.632079783e-10
5.196732952e-08
1.219295555e-09
5.049514914e-08
1.472189207e-09
4.877696494e-08
1.718186266e-09
4.682227105e-08
1.954700248e-09
4.464249195e-08
2.179779291e-09
4.225056664e-08
2.391930617e-09
3.966051509e-08
2.590052918e-09
3.688703651e-08
2.773486469e-09
3.394492496e-08
2.942116847e-09
3.08483407e-08
3.096595564e-09
2.76096788e-08
3.238670486e-09
2.423798711e-08
3.371704097e-09
2.073663849e-08
3.501356977e-09
1.710030311e-08
3.636344982e-09
1.331176664e-08
3.788541401e-09
9.341877414e-09
3.969893713e-09
5.157372715e-09
4.184504712e-09
6.613712805e-10
4.496000325e-09
-3.990332317e-09
4.651699037e-09
-8.502550323e-09
4.512213801e-09
-1.275124085e-08
4.248685644e-09
-1.675047219e-08
3.999228901e-09
-2.055889471e-08
3.808419006e-09
-2.421657104e-08
3.657675248e-09
-2.774188764e-08
3.525313663e-09
-3.113864683e-08
3.396757986e-09
-3.440178884e-08
3.263138105e-09
-3.752114813e-08
3.119356924e-09
-4.04839127e-08
2.962759849e-09
-4.32761482e-08
2.792233129e-09
-4.58837275e-08
2.607575493e-09
-4.829290451e-08
2.409176289e-09
-5.049078274e-08
2.197876316e-09
-5.246573641e-08
1.974954606e-09
-5.42078745e-08
1.742137382e-09
-5.570953727e-08
1.501664022e-09
-5.696582092e-08
1.256282541e-09
-5.797485076e-08
1.009030151e-09
-5.873759656e-08
7.62743975e-10
-5.925804432e-08
5.204477075e-10
-5.954733956e-08
2.892938353e-10
-5.963744988e-08
9.011118866e-11
-5.95705772e-08
-6.687287628e-11
-5.932968312e-08
-2.408922287e-10
-5.882885409e-08
-5.008285817e-10
-5.800289818e-08
-8.259541467e-10
-5.680722388e-08
-1.195674539e-09
-5.521572836e-08
-1.59149491e-09
-5.321800674e-08
-1.997722858e-09
-5.081586256e-08
-2.402144257e-09
-4.801987802e-08
-2.795985781e-09
-4.484640334e-08
-3.173474218e-09
-4.131483781e-08
-3.53156586e-09
-3.744476012e-08
-3.870076335e-09
-3.325243233e-08
-4.192327384e-09
-2.874607378e-08
-4.506357022e-09
-2.391908961e-08
-4.826984085e-09
-1.873983202e-08
-5.179257019e-09
-1.313429087e-08
-5.605542147e-09
-6.941403919e-09
-6.192887811e-09
3.849857629e-10
-7.326392055e-09
8.065037472e-09
-7.680053704e-09
1.457284687e-08
-6.507811787e-09
2.041666424e-08
-5.843818719e-09
2.583073395e-08
-5.41407151e-09
3.090589561e-08
-5.075162559e-09
3.567345686e-08
-4.767562753e-09
4.0134322e-08
-4.460866042e-09
4.427290614e-08
-4.138585865e-09
4.806539301e-08
-3.792488365e-09
5.148513171e-08
-3.419741133e-09
5.450641384e-08
-3.021284445e-09
5.710739598e-08
-2.600985038e-09
5.927282071e-08
-2.165427326e-09
6.099706283e-08
-1.72424477e-09
6.228778949e-08
-1.290728837e-09
6.316997206e-08
-8.82184539e-10
6.368919138e-08
-5.192209223e-10
6.391321588e-08
-2.240259351e-10
6.393261411e-08
-1.9399591e-11
6.3801264e-08
1.313488247e-10
6.347012635e-08
3.311362448e-10
6.289420684e-08
5.759181952e-10
6.204944633e-08
8.447590256e-10
6.092589632e-08
1.123548758e-09
5.952247244e-08
1.403422463e-09
5.784359394e-08
1.678877389e-09
5.589730927e-08
1.946283302e-09
5.369425082e-08
2.203057331e-09
5.124702329e-08
2.447226062e-09
4.856974985e-08
2.677272137e-09
4.56776493e-08
2.892098836e-09
4.258657276e-08
3.091075014e-09
3.931243369e-08
3.27413713e-09
3.587042556e-08
3.44200647e-09
3.227387983e-08
3.596543671e-09
2.853256391e-08
3.741314178e-09
2.465015091e-08
3.882410828e-09
2.062056487e-08
4.02958405e-09
1.642314079e-08
4.197421589e-09
1.201778005e-08
4.40535819e-09
7.344800068e-09
4.672976828e-09
2.315406661e-09
5.029389875e-09
-2.931572974e-09
5.246975423e-09
-8.152530101e-09
5.220953175e-09
-1.301256645e-08
4.860032845e-09
-1.753946208e-08
4.526892929e-09
-2.182219521e-08
4.282730488e-09
-2.592174967e-08
4.09955248e-09
-2.98684051e-08
3.946653253e-09
-3.367237469e-08
3.803968141e-09
-3.733199939e-08
3.659622837e-09
-4.083875563e-08
3.506755282e-09
-4.418028515e-08
3.341527935e-09
-4.734231348e-08
3.162028012e-09
-5.030992898e-08
2.967614203e-09
-5.306837878e-08
2.758449962e-09
-5.560363368e-08
2.535253502e-09
-5.790282438e-08
2.299190891e-09
-5.995468427e-08
2.051857967e-09
-6.175005557e-08
1.795371265e-09
-6.328250906e-08
1.532451204e-09
-6.454884502e-08
1.266336034e-09
-6.554913091e-08
1.000283909e-09
-6.628619114e-08
7.370612493e-10
-6.676647949e-08
4.802872552e-10
-6.700694844e-08
2.404707276e-10
-6.705186731e-08
4.491774106e-11
-6.6931369e-08
-1.20497113e-10
-6.659118169e-08
-3.401897908e-10
-6.594796092e-08
-6.432209618e-10
-6.493698584e-08
-1.010978905e-09
-6.351469558e-08
-1.422291261e-09
-6.165766511e-08
-1.857034419e-09
-5.935879454e-08
-2.29887083e-09
-5.662313482e-08
-2.735662506e-09
-5.346420063e-08
-3.15893337e-09
-4.990095237e-08
-3.563250597e-09
-4.595500124e-08
-3.94595069e-09
-4.164761554e-08
-4.307389313e-09
-3.699591264e-08
-4.651704284e-09
-3.200764484e-08
-4.988273253e-09
-2.667350926e-08
-5.334138878e-09
-2.095510672e-08
-5.718409011e-09
-1.476215811e-08
-6.192952481e-09
-7.883007204e-09
-6.879156563e-09
4.434087557e-10
-8.326418916e-09
9.101823954e-09
-8.658419458e-09
1.6267281e-08
-7.165458162e-09
2.266277011e-08
-6.39549142e-09
2.858025742e-08
-5.917487131e-09
3.412646361e-08
-5.54620834e-09
3.933925255e-08
-5.212788673e-09
4.422271267e-08
-4.883462411e-09
4.876270436e-08
-4.539991041e-09
5.293570212e-08
-4.172999517e-09
5.671453868e-08
-3.778834579e-09
6.007241809e-08
-3.357879633e-09
6.298603073e-08
-2.913608143e-09
6.543829912e-08
-2.452266642e-09
6.742131863e-08
-1.983013134e-09
6.893982091e-08
-1.518500366e-09
7.001519994e-08
-1.075373111e-09
7.068912428e-08
-6.739245494e-10
7.102565122e-08
-3.365229806e-10
7.11128343e-08
-8.718554381e-11
7.102488649e-08
8.795066919e-11
7.075149578e-08
2.733880987e-10
7.02323141e-08
5.191862295e-10
6.943516555e-08
7.97148038e-10
6.834558072e-08
1.089591442e-09
6.695990022e-08
1.385680429e-09
6.528102005e-08
1.678885881e-09
6.331597187e-08
1.965045317e-09
6.107467476e-08
2.241299754e-09
5.85691868e-08
2.505482187e-09
5.581326618e-08
2.755921484e-09
5.2821932e-08
2.991328468e-09
4.961111779e-08
3.21081717e-09
4.619715063e-08
3.413964865e-09
4.25961651e-08
3.600991567e-09
3.882316884e-08
3.772995737e-09
3.489074066e-08
3.932433724e-09
3.080697512e-08
4.083762439e-09
2.65724756e-08
4.234500945e-09
2.217577969e-08
4.39668893e-09
1.758703916e-08
4.588738013e-09
1.275099818e-08
4.836032821e-09
7.587640289e-09
5.163355443e-09
2.007393153e-09
5.580242569e-09
-3.780744844e-09
5.788139848e-09
-9.478114869e-09
5.6973708e-09
-1.474933817e-08
5.271228026e-09
-1.965275516e-08
4.903417855e-09
-2.429463462e-08
4.641883807e-09
-2.874399317e-08
4.44935791e-09
-3.303505826e-08
4.291067799e-09
-3.718008402e-08
4.145023514e-09
-4.117824544e-08
3.99816304e-09
-4.502122097e-08
3.842972896e-09
-4.869643191e-08
3.675212927e-09
-5.218911743e-08
3.49268418e-09
-5.548359053e-08
3.294477268e-09
-5.856409947e-08
3.0805099e-09
-6.141540212e-08
2.851308632e-09
-6.402326503e-08
2.607864458e-09
-6.637489883e-08
2.351639438e-09
-6.845951296e-08
2.084614205e-09
-7.026891464e-08
1.809405963e-09
-7.17981675e-08
1.529251872e-09
-7.304581148e-08
1.247648263e-09
-7.401331152e-08
9.67500103e-10
-7.470425518e-08
6.90950419e-10
-7.512661386e-08
4.223613223e-10
-7.530306139e-08
1.764565125e-10
-7.529105247e-08
-1.200596536e-11
-7.510265454e-08
-1.883900147e-10
-7.464253241e-08
-4.601222096e-10
-7.383065113e-08
-8.118765824e-10
-7.26046025e-08
-1.226051933e-09
-7.092310971e-08
-1.681490107e-09
-6.876521574e-08
-2.157897628e-09
-6.612632409e-08
-2.6388873e-09
-6.301382468e-08
-3.112500191e-09
-5.94433184e-08
-3.570499239e-09
-5.543557544e-08
-4.00774221e-09
-5.101359724e-08
-4.42197146e-09
-4.619937391e-08
-4.81422463e-09
-4.100956406e-08
-5.189806267e-09
-3.544947078e-08
-5.560097473e-09
-2.950393492e-08
-5.945535006e-09
-2.312271374e-08
-6.381225761e-09
-1.619078095e-08
-6.931930902e-09
-8.423983269e-09
-7.766797636e-09
1.266009094e-09
-9.68998443e-09
1.111695033e-08
-9.850934645e-09
1.897961111e-08
-7.862650758e-09
2.601770696e-08
-7.038090038e-09
3.253898853e-08
-6.521272925e-09
3.865514614e-08
-6.11615237e-09
4.440643633e-08
-5.751281864e-09
4.979716805e-08
-5.390726198e-09
5.481198296e-08
-5.014806632e-09
5.942538676e-08
-4.613398369e-09
6.360793212e-08
-4.182537862e-09
6.733048677e-08
-3.722550146e-09
7.056755489e-08
-3.237061868e-09
7.33002077e-08
-2.73264921e-09
7.551921458e-08
-2.219001642e-09
7.722871624e-08
-1.709498604e-09
7.845052147e-08
-1.22180061e-09
7.922811505e-08
-7.775907758e-10
7.962904042e-08
-4.009211213e-10
7.974665866e-08
-1.176155719e-10
7.966970601e-08
7.695663277e-11
7.940172225e-08
2.679863062e-10
7.887177565e-08
5.299503398e-10
7.804172794e-08
8.300501095e-10
7.689348016e-08
1.148251348e-09
7.542106089e-08
1.472421563e-09
7.362583653e-08
1.795227802e-09
7.151378929e-08
2.112049496e-09
6.909404382e-08
2.419748842e-09
6.637795687e-08
2.71608921e-09
6.337847311e-08
2.999487124e-09
6.010949005e-08
3.2689854e-09
5.658516907e-08
3.524324399e-09
5.281900409e-08
3.766167467e-09
4.882245417e-08
3.996553476e-09
4.460274339e-08
4.219713533e-09
4.015904901e-08
4.443698208e-09
3.547528359e-08
4.68376861e-09
3.050517572e-08
4.97011216e-09
2.513953481e-08
5.365644827e-09
1.91427916e-08
5.996748381e-09
1.213920361e-08
7.00359326e-09
4.512453711e-09
7.626756978e-09
-2.69237379e-09
7.204835712e-09
-1.098553756e-09
-1.593809083e-09
-7.731337427e-09
6.632794097e-09
-1.537792372e-08
7.646594562e-09
-2.225101126e-08
6.873094207e-09
-2.836451457e-08
6.11350957e-09
-3.397785331e-08
5.613344276e-09
-3.914734607e-08
5.169498106e-09
-4.41002919e-08
4.95295073e-09
-4.882720251e-08
4.726915394e-09
-5.3235554e-08
4.408356013e-09
-5.735969272e-08
4.124143162e-09
-6.123803436e-08
3.878345971e-09
-6.496044136e-08
3.722411211e-09
-6.878331795e-08
3.822880767e-09
-7.306748073e-08
4.284166762e-09
-7.80268382e-08
4.959361417e-09
-8.324958336e-08
5.222748778e-09
-8.75740819e-08
4.324502137e-09
-8.910252858e-08
1.528449978e-09
-8.261202382e-08
-6.490501311e-09
-5.92045366e-08
-2.340748397e-08
-1.016198702e-07
4.241533593e-08
-1.885095378e-07
8.688966817e-08
-3.038711057e-07
1.15361568e-07
-4.420868808e-07
1.382157751e-07
-5.966780612e-07
1.545911805e-07
-7.594873904e-07
1.628093293e-07
-9.227111064e-07
1.63223716e-07
1.54069344e-07
-1.07678045e-06
4.282110156e-08
3.397686845e-09
5.742433589e-08
-3.460556959e-09
-3.379714398e-09
2.407389444e-08
-3.689044167e-08
3.292432302e-08
-8.692460249e-09
6.925364412e-08
-1.261630038e-08
-2.000578069e-08
-6.023485754e-08
5.433778947e-10
-8.514164556e-08
-1.973202392e-08
3.621325406e-08
-7.857478574e-08
1.273887249e-08
5.303803775e-08
-3.941961094e-08
-2.606822407e-08
2.991624552e-08
-8.250023544e-08
1.321027112e-08
1.57751374e-08
1.925708879e-08
1.156545488e-08
9.638150639e-09
1.590596185e-08
1.857051966e-09
-7.489363545e-09
1.553626147e-09
1.143313805e-09
-2.334943073e-10
4.084205122e-09
-2.545672569e-09
8.405905454e-10
-1.092035478e-08
9.730596548e-09
-1.144090868e-08
-9.707432562e-09
-1.63935127e-08
-9.535349594e-09
1.624961248e-08
1.482723063e-09
1.749185942e-08
3.776115616e-08
-2.79868924e-09
-1.10288983e-08
6.545878647e-09
-4.469158579e-08
-2.130756725e-08
3.894261785e-08
4.965616627e-09
6.135926289e-10
8.629848968e-09
-1.223168938e-09
6.761117268e-09
-9.372306347e-09
1.274915282e-09
-4.677194843e-09
4.795974873e-09
-3.38535795e-09
1.044378581e-08
-5.223082825e-09
1.41199989e-08
-3.745774274e-09
2.269503853e-08
-7.069714947e-09
2.206633967e-08
-2.638149802e-09
9.891757533e-09
-4.69921283e-09
3.239438896e-09
8.902523752e-09
1.212854508e-08
4.112573801e-09
2.656499081e-08
-6.978138742e-09
3.04049057e-08
3.577951766e-09
1.429272746e-08
-8.095606265e-09
-5.931641256e-09
-1.227720301e-08
4.611852493e-09
1.07543726e-08
2.217493142e-08
3.578061957e-09
1.979668517e-08
1.323369159e-08
1.479634685e-08
5.27363109e-09
2.265850564e-09
-2.910066118e-09
1.471278935e-08
-1.943814215e-08
9.022275629e-09
1.064955799e-08
9.91711199e-09
1.360429322e-08
3.183215363e-09
7.932895947e-09
-2.739247733e-09
5.104666999e-09
-8.013993018e-09
6.069971366e-09
-1.043797852e-08
5.650674789e-09
-1.287895387e-08
5.569582661e-09
-1.543073792e-08
5.205667415e-09
-1.781430119e-08
4.676129614e-09
-1.995353706e-08
4.141955747e-09
-2.183354815e-08
3.61370746e-09
-2.34497291e-08
3.07918103e-09
-2.479365161e-08
2.528573349e-09
-2.58461196e-08
1.95022107e-09
-2.658332227e-08
1.335854684e-09
-2.698637025e-08
6.904193426e-10
-2.704012151e-08
2.796187312e-11
-2.681262959e-08
-3.449301234e-10
-2.628983547e-08
-8.797362389e-10
-2.542378903e-08
-1.506898089e-09
-2.418791915e-08
-2.190920637e-09
-2.257759648e-08
-2.894681074e-09
-2.059837535e-08
-3.588367942e-09
-1.825459639e-08
-4.254599693e-09
-1.553305222e-08
-4.893633765e-09
-1.237547766e-08
-5.530446431e-09
-8.640835015e-09
-6.246152157e-09
-4.041599462e-09
-7.295540367e-09
2.104409133e-09
-8.964202053e-09
7.172111145e-09
-8.9854258e-09
1.083659646e-08
-7.684387364e-09
1.440589354e-08
-6.87010798e-09
1.754006566e-08
-5.98304124e-09
2.027016897e-08
-5.187447413e-09
2.2610965e-08
-4.424405876e-09
2.456463597e-08
-3.667819764e-09
2.613107297e-08
-2.91458423e-09
2.731540268e-08
-2.176983591e-09
2.813408089e-08
-1.478564975e-09
2.861828238e-08
-8.487536457e-10
2.881081159e-08
-3.113671822e-10
2.875489494e-08
1.018867501e-10
2.854674413e-08
3.467475758e-10
2.813310621e-08
7.041634227e-10
2.748810877e-08
1.126238521e-09
2.660759863e-08
1.570715445e-09
2.549848518e-08
2.01117576e-09
2.417169268e-08
2.433582326e-09
2.263935146e-08
2.830897988e-09
2.091350968e-08
3.200223328e-09
1.900445464e-08
3.542060259e-09
1.691803896e-08
3.860516925e-09
1.465068416e-08
4.16442192e-09
1.217853186e-08
4.47019763e-09
9.435832461e-09
4.810309389e-09
6.29484957e-09
5.254687256e-09
2.631580686e-09
5.940585042e-09
-1.902325267e-09
6.599768815e-09
-6.126160252e-09
6.563414051e-09
-9.178768297e-09
5.904879779e-09
-1.196095605e-08
5.526381961e-09
-1.463366996e-08
5.180851806e-09
-1.715719168e-08
4.835887798e-09