cellI,x,y,z,S,Ux,Uy,Uz
54390,0.00064993565,0.09,0.00065,1.68983269e-06,0,0,0
54391,0.00194980695,0.09,0.00065,1.68983269e-06,0,0,0
54392,0.00324967825,0.09,0.00065,1.68983269e-06,0,0,0
54393,0.004549549549,0.09,0.00065,1.689832689e-06,0,0,0
54394,0.005849420849,0.09,0.00065,1.68983269e-06,0,0,0
54395,0.007149292149,0.09,0.00065,1.68983269e-06,0,0,0
54396,0.008449163449,0.09,0.00065,1.68983269e-06,0,0,0
54397,0.00974903475,0.09,0.00065,1.689832691e-06,0,0,0
54398,0.01104890605,0.09,0.00065,1.68983269e-06,0,0,0
54399,0.01234877735,0.09,0.00065,1.68983269e-06,0,0,0
54400,0.01364864865,0.09,0.00065,1.68983269e-06,0,0,0
54401,0.01494851995,0.09,0.00065,1.68983269e-06,0,0,0
54402,0.01624839125,0.09,0.00065,1.68983269e-06,0,0,0
54403,0.01754826255,0.09,0.00065,1.68983269e-06,0,0,0
54404,0.01884813385,0.09,0.00065,1.68983269e-06,0,0,0
54405,0.02014800515,0.09,0.00065,1.68983269e-06,0,0,0
54406,0.02144787645,0.09,0.00065,1.68983269e-06,0,0,0
54407,0.02274774775,0.09,0.00065,1.68983269e-06,0,0,0
54408,0.02404761905,0.09,0.00065,1.68983269e-06,0,0,0
54409,0.02534749035,0.09,0.00065,1.68983269e-06,0,0,0
54410,0.02664736165,0.09,0.00065,1.68983269e-06,0,0,0
54411,0.02794723295,0.09,0.00065,1.68983269e-06,0,0,0
54412,0.02924710425,0.09,0.00065,1.68983269e-06,0,0,0
54413,0.03054697555,0.09,0.00065,1.68983269e-06,0,0,0
54414,0.03184684685,0.09,0.00065,1.68983269e-06,0,0,0
54415,0.03314671815,0.09,0.00065,1.68983269e-06,0,0,0
54416,0.03444658945,0.09,0.00065,1.68983269e-06,0,0,0
54417,0.03574646075,0.09,0.00065,1.68983269e-06,0,0,0
54418,0.03704633205,0.09,0.00065,1.68983269e-06,0,0,0
54419,0.03834620335,0.09,0.00065,1.68983269e-06,0,0,0
54420,0.03964607465,0.09,0.00065,1.68983269e-06,0,0,0
54421,0.04094594595,0.09,0.00065,1.68983269e-06,0,0,0
54422,0.04224581725,0.09,0.00065,1.68983269e-06,0,0,0
54423,0.04354568855,0.09,0.00065,1.68983269e-06,0,0,0
54424,0.04484555985,0.09,0.00065,1.68983269e-06,0,0,0
54425,0.04614543115,0.09,0.00065,1.68983269e-06,0,0,0
54426,0.04744530245,0.09,0.00065,1.68983269e-06,0,0,0
54427,0.04874517375,0.09,0.00065,1.68983269e-06,0,0,0
54428,0.05004504504,0.09,0.00065,1.689832677e-06,0,0,0
54429,0.05134491634,0.09,0.00065,1.68983269e-06,0,0,0
54430,0.05264478764,0.09,0.00065,1.68983269e-06,0,0,0
54431,0.05394465894,0.09,0.00065,1.68983269e-06,0,0,0
54432,0.05524453024,0.09,0.00065,1.68983269e-06,0,0,0
54433,0.05654440154,0.09,0.00065,1.68983269e-06,0,0,0
54434,0.05784427284,0.09,0.00065,1.68983269e-06,0,0,0
54435,0.05914414414,0.09,0.00065,1.68983269e-06,0,0,0
54436,0.06044401544,0.09,0.00065,1.68983269e-06,0,0,0
54437,0.06174388674,0.09,0.00065,1.68983269e-06,0,0,0
54438,0.06304375804,0.09,0.00065,1.68983269e-06,0,0,0
54439,0.06434362934,0.09,0.00065,1.68983269e-06,0,0,0
54440,0.06564350064,0.09,0.00065,1.68983269e-06,0,0,0
54441,0.06694337194,0.09,0.00065,1.68983269e-06,0,0,0
54442,0.06824324324,0.09,0.00065,1.68983269e-06,0,0,0
54443,0.06954311454,0.09,0.00065,1.68983269e-06,0,0,0
54444,0.07084298584,0.09,0.00065,1.68983269e-06,0,0,0
54445,0.07214285714,0.09,0.00065,1.68983269e-06,0,0,0
54446,0.07344272844,0.09,0.00065,1.68983269e-06,0,0,0
54447,0.07474259974,0.09,0.00065,1.68983269e-06,0,0,0
54448,0.07604247104,0.09,0.00065,1.68983269e-06,0,0,0
54449,0.07734234234,0.09,0.00065,1.68983269e-06,0,0,0
54450,0.07864221364,0.09,0.00065,1.68983269e-06,0,0,0
54451,0.07994208494,0.09,0.00065,1.68983269e-06,0,0,0
54452,0.08124195624,0.09,0.00065,1.68983269e-06,0,0,0
54453,0.08254182754,0.09,0.00065,1.68983269e-06,0,0,0
54454,0.08384169884,0.09,0.00065,1.68983269e-06,0,0,0
54455,0.08514157014,0.09,0.00065,1.68983269e-06,0,0,0
54456,0.08644144144,0.09,0.00065,1.68983269e-06,0,0,0
54457,0.08774131274,0.09,0.00065,1.68983269e-06,0,0,0
54458,0.08904118404,0.09,0.00065,1.68983269e-06,0,0,0
54459,0.09034105534,0.09,0.00065,1.68983269e-06,0,0,0
54460,0.09164092664,0.09,0.00065,1.68983269e-06,0,0,0
54461,0.09294079794,0.09,0.00065,1.68983269e-06,0,0,0
54462,0.09424066924,0.09,0.00065,1.68983269e-06,0,0,0
54463,0.09554054054,0.09,0.00065,1.68983269e-06,0,0,0
54464,0.09684041184,0.09,0.00065,1.68983269e-06,0,0,0
54465,0.09814028314,0.09,0.00065,1.68983269e-06,0,0,0
54466,0.09944015444,0.09,0.00065,1.689832703e-06,0,0,0
54467,0.1007400257,0.09,0.00065,1.68983269e-06,0,0,0
54468,0.102039897,0.09,0.00065,1.68983269e-06,0,0,0
54469,0.1033397683,0.09,0.00065,1.68983269e-06,0,0,0
54470,0.1046396397,0.09,0.00065,1.68983269e-06,0,0,0
54471,0.1059395109,0.09,0.00065,1.68983269e-06,0,0,0
54472,0.1072393822,0.09,0.00065,1.68983269e-06,0,0,0
54473,0.1085392535,0.09,0.00065,1.68983269e-06,0,0,0
54474,0.1098391248,0.09,0.00065,1.68983269e-06,0,0,0
54475,0.1111389961,0.09,0.00065,1.68983269e-06,0,0,0
54476,0.1124388675,0.09,0.00065,1.68983269e-06,0,0,0
54477,0.1137387387,0.09,0.00065,1.68983269e-06,0,0,0
54478,0.11503861,0.09,0.00065,1.68983269e-06,0,0,0
54479,0.1163384814,0.09,0.00065,1.68983269e-06,0,0,0
54480,0.1176383526,0.09,0.00065,1.68983269e-06,0,0,0
54481,0.118938224,0.09,0.00065,1.68983269e-06,0,0,0
54482,0.1202380952,0.09,0.00065,1.68983269e-06,0,0,0
54483,0.1215379666,0.09,0.00065,1.68983269e-06,0,0,0
54484,0.1228378378,0.09,0.00065,1.68983269e-06,0,0,0
54485,0.1241377092,0.09,0.00065,1.68983269e-06,0,0,0
54486,0.1254375805,0.09,0.00065,1.68983269e-06,0,0,0
54487,0.1267374518,0.09,0.00065,1.68983269e-06,0,0,0
54488,0.1280373231,0.09,0.00065,1.68983269e-06,0,0,0
54489,0.1293371943,0.09,0.00065,1.68983269e-06,0,0,0
54490,0.1306370656,0.09,0.00065,1.68983269e-06,0,0,0
54491,0.1319369369,0.09,0.00065,1.68983269e-06,0,0,0
54492,0.1332368083,0.09,0.00065,1.68983269e-06,0,0,0
54493,0.1345366796,0.09,0.00065,1.68983269e-06,0,0,0
54494,0.1358365509,0.09,0.00065,1.68983269e-06,0,0,0
54495,0.1371364221,0.09,0.00065,1.68983269e-06,0,0,0
54496,0.1384362934,0.09,0.00065,1.68983269e-06,0,0,0
54497,0.1397361647,0.09,0.00065,1.68983269e-06,0,0,0
54498,0.141036036,0.09,0.00065,1.68983269e-06,0,0,0
54499,0.1423359074,0.09,0.00065,1.68983269e-06,0,0,0
54500,0.1436357787,0.09,0.00065,1.68983269e-06,0,0,0
54501,0.1449356499,0.09,0.00065,1.68983269e-06,0,0,0
54502,0.1462355213,0.09,0.00065,1.68983269e-06,0,0,0
54503,0.1475353925,0.09,0.00065,1.68983269e-06,0,0,0
54504,0.1488352638,0.09,0.00065,1.68983269e-06,0,0,0
54505,0.1501351351,0.09,0.00065,1.68983269e-06,0,0,0
54506,0.1514350065,0.09,0.00065,1.68983269e-06,0,0,0
54507,0.1527348777,0.09,0.00065,1.68983269e-06,0,0,0
54508,0.154034749,0.09,0.00065,1.68983269e-06,0,0,0
54509,0.1553346203,0.09,0.00065,1.68983269e-06,0,0,0
54510,0.1566344916,0.09,0.00065,1.68983269e-06,0,0,0
54511,0.157934363,0.09,0.00065,1.68983269e-06,0,0,0
54512,0.1592342343,0.09,0.00065,1.68983269e-06,0,0,0
54513,0.1605341055,0.09,0.00065,1.68983269e-06,0,0,0
54514,0.1618339768,0.09,0.00065,1.68983269e-06,0,0,0
54515,0.1631338481,0.09,0.00065,1.68983269e-06,0,0,0
54516,0.1644337195,0.09,0.00065,1.68983269e-06,0,0,0
54517,0.1657335907,0.09,0.00065,1.68983269e-06,0,0,0
54518,0.167033462,0.09,0.00065,1.68983269e-06,0,0,0
54519,0.1683333334,0.09,0.00065,1.68983269e-06,0,0,0
54520,0.1696332046,0.09,0.00065,1.68983269e-06,0,0,0
54521,0.1709330759,0.09,0.00065,1.68983269e-06,0,0,0
54522,0.1722329473,0.09,0.00065,1.68983269e-06,0,0,0
54523,0.1735328186,0.09,0.00065,1.68983269e-06,0,0,0
54524,0.1748326899,0.09,0.00065,1.68983269e-06,0,0,0
54525,0.1761325612,0.09,0.00065,1.68983269e-06,0,0,0
54526,0.1774324324,0.09,0.00065,1.68983269e-06,0,0,0
54527,0.1787323037,0.09,0.00065,1.68983269e-06,0,0,0
54528,0.1800321751,0.09,0.00065,1.68983269e-06,0,0,0
54529,0.1813320463,0.09,0.00065,1.68983269e-06,0,0,0
54530,0.1826319176,0.09,0.00065,1.68983269e-06,0,0,0
54531,0.1839317889,0.09,0.00065,1.68983269e-06,0,0,0
54532,0.1852316602,0.09,0.00065,1.68983269e-06,0,0,0
54533,0.1865315315,0.09,0.00065,1.68983269e-06,0,0,0
54534,0.1878314028,0.09,0.00065,1.68983269e-06,0,0,0
54535,0.1891312741,0.09,0.00065,1.68983269e-06,0,0,0
54536,0.1904311454,0.09,0.00065,1.68983269e-06,0,0,0
54537,0.1917310168,0.09,0.00065,1.68983269e-06,0,0,0
54538,0.193030888,0.09,0.00065,1.68983269e-06,0,0,0
54539,0.1943307593,0.09,0.00065,1.68983269e-06,0,0,0
54540,0.1956306307,0.09,0.00065,1.68983269e-06,0,0,0
54541,0.1969305019,0.09,0.00065,1.68983269e-06,0,0,0
54542,0.1982303732,0.09,0.00065,1.68983269e-06,0,0,0
54543,0.1995302446,0.09,0.00065,1.68983269e-06,0,0,0
54544,0.2008301158,0.09,0.00065,1.68983269e-06,0,0,0
54545,0.2021299872,0.09,0.00065,1.68983269e-06,0,0,0
54546,0.2034298584,0.09,0.00065,1.68983269e-06,0,0,0
54547,0.2047297297,0.09,0.00065,1.68983269e-06,0,0,0
54548,0.206029601,0.09,0.00065,1.68983269e-06,0,0,0
54549,0.2073294723,0.09,0.00065,1.68983269e-06,0,0,0
54550,0.2086293436,0.09,0.00065,1.68983269e-06,0,0,0
54551,0.2099292149,0.09,0.00065,1.68983269e-06,0,0,0
54552,0.2112290862,0.09,0.00065,1.68983269e-06,0,0,0
54553,0.2125289576,0.09,0.00065,1.68983269e-06,0,0,0
54554,0.2138288288,0.09,0.00065,1.68983269e-06,0,0,0
54555,0.2151287002,0.09,0.00065,1.68983269e-06,0,0,0
54556,0.2164285714,0.09,0.00065,1.68983269e-06,0,0,0
54557,0.2177284428,0.09,0.00065,1.68983269e-06,0,0,0
54558,0.2190283141,0.09,0.00065,1.68983269e-06,0,0,0
54559,0.2203281853,0.09,0.00065,1.68983269e-06,0,0,0
54560,0.2216280567,0.09,0.00065,1.68983269e-06,0,0,0
54561,0.2229279279,0.09,0.00065,1.68983269e-06,0,0,0
54562,0.2242277992,0.09,0.00065,1.68983269e-06,0,0,0
54563,0.2255276706,0.09,0.00065,1.68983269e-06,0,0,0
54564,0.2268275418,0.09,0.00065,1.68983269e-06,0,0,0
54565,0.2281274132,0.09,0.00065,1.68983269e-06,0,0,0
54566,0.2294272844,0.09,0.00065,1.68983269e-06,0,0,0
54567,0.2307271558,0.09,0.00065,1.68983269e-06,0,0,0
54568,0.232027027,0.09,0.00065,1.68983269e-06,0,0,0
54569,0.2333268984,0.09,0.00065,1.68983269e-06,0,0,0
54570,0.2346267697,0.09,0.00065,1.68983269e-06,0,0,0
54571,0.2359266409,0.09,0.00065,1.68983269e-06,0,0,0
54572,0.2372265122,0.09,0.00065,1.68983269e-06,0,0,0
54573,0.2385263835,0.09,0.00065,1.68983269e-06,0,0,0
54574,0.2398262548,0.09,0.00065,1.68983269e-06,0,0,0
54575,0.2411261262,0.09,0.00065,1.68983269e-06,0,0,0
54576,0.2424259974,0.09,0.00065,1.68983269e-06,0,0,0
54577,0.2437258687,0.09,0.00065,1.68983269e-06,0,0,0
54578,0.24502574,0.09,0.00065,1.68983269e-06,0,0,0
54579,0.2463256114,0.09,0.00065,1.68983269e-06,0,0,0
54580,0.2476254827,0.09,0.00065,1.68983269e-06,0,0,0
54581,0.2489253539,0.09,0.00065,1.68983269e-06,0,0,0
54582,0.2502252253,0.09,0.00065,1.68983269e-06,0,0,0
54583,0.2515250965,0.09,0.00065,1.68983269e-06,0,0,0
54584,0.2528249678,0.09,0.00065,1.68983269e-06,0,0,0
54585,0.2541248392,0.09,0.00065,1.68983269e-06,0,0,0
54586,0.2554247104,0.09,0.00065,1.68983269e-06,0,0,0
54587,0.2567245818,0.09,0.00065,1.68983269e-06,0,0,0
54588,0.258024453,0.09,0.00065,1.68983269e-06,0,0,0
54589,0.2593243243,0.09,0.00065,1.68983269e-06,0,0,0
54590,0.2606241957,0.09,0.00065,1.68983269e-06,0,0,0
54591,0.261924067,0.09,0.00065,1.68983269e-06,0,0,0
54592,0.2632239383,0.09,0.00065,1.68983269e-06,0,0,0
54593,0.2645238095,0.09,0.00065,1.68983269e-06,0,0,0
54594,0.2658236809,0.09,0.00065,1.68983269e-06,0,0,0
54595,0.2671235521,0.09,0.00065,1.68983269e-06,0,0,0
54596,0.2684234234,0.09,0.00065,1.68983269e-06,0,0,0
54597,0.2697232947,0.09,0.00065,1.68983269e-06,0,0,0
54598,0.271023166,0.09,0.00065,1.68983269e-06,0,0,0
54599,0.2723230374,0.09,0.00065,1.68983269e-06,0,0,0
54600,0.2736229086,0.09,0.00065,1.68983269e-06,0,0,0
54601,0.2749227799,0.09,0.00065,1.68983269e-06,0,0,0
54602,0.2762226512,0.09,0.00065,1.68983269e-06,0,0,0
54603,0.2775225225,0.09,0.00065,1.68983269e-06,0,0,0
54604,0.2788223938,0.09,0.00065,1.68983269e-06,0,0,0
54605,0.2801222651,0.09,0.00065,1.68983269e-06,0,0,0
54606,0.2814221364,0.09,0.00065,1.68983269e-06,0,0,0
54607,0.2827220078,0.09,0.00065,1.68983269e-06,0,0,0
54608,0.284021879,0.09,0.00065,1.68983269e-06,0,0,0
54609,0.2853217504,0.09,0.00065,1.68983269e-06,0,0,0
54610,0.2866216216,0.09,0.00065,1.68983269e-06,0,0,0
54611,0.2879214929,0.09,0.00065,1.68983269e-06,0,0,0
54612,0.2892213643,0.09,0.00065,1.68983269e-06,0,0,0
54613,0.2905212355,0.09,0.00065,1.68983269e-06,0,0,0
54614,0.2918211068,0.09,0.00065,1.68983269e-06,0,0,0
54615,0.2931209781,0.09,0.00065,1.68983269e-06,0,0,0
54616,0.2944208495,0.09,0.00065,1.68983269e-06,0,0,0
54617,0.2957207207,0.09,0.00065,1.68983269e-06,0,0,0
54618,0.297020592,0.09,0.00065,1.68983269e-06,0,0,0
54619,0.2983204633,0.09,0.00065,1.68983269e-06,0,0,0
54620,0.2996203346,0.09,0.00065,1.68983269e-06,0,0,0
54621,0.3009202059,0.09,0.00065,1.68983269e-06,0,0,0
54622,0.3022200772,0.09,0.00065,1.68983269e-06,0,0,0
54623,0.3035199485,0.09,0.00065,1.68983269e-06,0,0,0
54624,0.3048198199,0.09,0.00065,1.68983269e-06,0,0,0
54625,0.3061196911,0.09,0.00065,1.68983269e-06,0,0,0
54626,0.3074195625,0.09,0.00065,1.68983269e-06,0,0,0
54627,0.3087194337,0.09,0.00065,1.68983269e-06,0,0,0
54628,0.3100193051,0.09,0.00065,1.68983269e-06,0,0,0
54629,0.3113191764,0.09,0.00065,1.68983269e-06,0,0,0
54630,0.3126190477,0.09,0.00065,1.68983269e-06,0,0,0
54631,0.313918919,0.09,0.00065,1.68983269e-06,0,0,0
54632,0.3152187902,0.09,0.00065,1.68983269e-06,0,0,0
54633,0.3165186615,0.09,0.00065,1.68983269e-06,0,0,0
54634,0.3178185328,0.09,0.00065,1.68983269e-06,0,0,0
54635,0.3191184041,0.09,0.00065,1.68983269e-06,0,0,0
54636,0.3204182755,0.09,0.00065,1.68983269e-06,0,0,0
54637,0.3217181467,0.09,0.00065,1.68983269e-06,0,0,0
54638,0.323018018,0.09,0.00065,1.68983269e-06,0,0,0
54639,0.3243178893,0.09,0.00065,1.68983269e-06,0,0,0
54640,0.3256177607,0.09,0.00065,1.68983269e-06,0,0,0
54641,0.326917632,0.09,0.00065,1.68983269e-06,0,0,0
54642,0.3282175032,0.09,0.00065,1.68983269e-06,0,0,0
54643,0.3295173746,0.09,0.00065,1.68983269e-06,0,0,0
54644,0.3308172458,0.09,0.00065,1.68983269e-06,0,0,0
54645,0.3321171172,0.09,0.00065,1.68983269e-06,0,0,0
54646,0.3334169885,0.09,0.00065,1.68983269e-06,0,0,0
54647,0.3347168597,0.09,0.00065,1.68983269e-06,0,0,0
54648,0.336016731,0.09,0.00065,1.68983269e-06,0,0,0
54649,0.3373166023,0.09,0.00065,1.68983269e-06,0,0,0
54650,0.3386164737,0.09,0.00065,1.68983269e-06,0,0,0
54651,0.339916345,0.09,0.00065,1.68983269e-06,0,0,0
54652,0.3412162163,0.09,0.00065,1.68983269e-06,0,0,0
54653,0.3425160876,0.09,0.00065,1.68983269e-06,0,0,0
54654,0.3438159588,0.09,0.00065,1.68983269e-06,0,0,0
54655,0.3451158302,0.09,0.00065,1.68983269e-06,0,0,0
54656,0.3464157014,0.09,0.00065,1.68983269e-06,0,0,0
54657,0.3477155728,0.09,0.00065,1.68983269e-06,0,0,0
54658,0.3490154441,0.09,0.00065,1.68983269e-06,0,0,0
54659,0.3503153153,0.09,0.00065,1.68983269e-06,0,0,0
54660,0.3516151866,0.09,0.00065,1.68983269e-06,0,0,0
54661,0.3529150579,0.09,0.00065,1.68983269e-06,0,0,0
54662,0.3542149293,0.09,0.00065,1.68983269e-06,0,0,0
54663,0.3555148006,0.09,0.00065,1.68983269e-06,0,0,0
54664,0.3568146718,0.09,0.00065,1.68983269e-06,0,0,0
54665,0.3581145432,0.09,0.00065,1.68983269e-06,0,0,0
54666,0.3594144144,0.09,0.00065,1.68983269e-06,0,0,0
54667,0.3607142858,0.09,0.00065,1.68983269e-06,0,0,0
54668,0.362014157,0.09,0.00065,1.68983269e-06,0,0,0
54669,0.3633140283,0.09,0.00065,1.68983269e-06,0,0,0
54670,0.3646138997,0.09,0.00065,1.68983269e-06,0,0,0
54671,0.3659137709,0.09,0.00065,1.68983269e-06,0,0,0
54672,0.3672136423,0.09,0.00065,1.68983269e-06,0,0,0
54673,0.3685135135,0.09,0.00065,1.68983269e-06,0,0,0
54674,0.3698133848,0.09,0.00065,1.68983269e-06,0,0,0
54675,0.3711132561,0.09,0.00065,1.68983269e-06,0,0,0
54676,0.3724131274,0.09,0.00065,1.68983269e-06,0,0,0
54677,0.3737129987,0.09,0.00065,1.68983269e-06,0,0,0
54678,0.3750128701,0.09,0.00065,1.68983269e-06,0,0,0
54679,0.3763127413,0.09,0.00065,1.68983269e-06,0,0,0
54680,0.3776126126,0.09,0.00065,1.68983269e-06,0,0,0
54681,0.3789124839,0.09,0.00065,1.68983269e-06,0,0,0
54682,0.3802123553,0.09,0.00065,1.68983269e-06,0,0,0
54683,0.3815122265,0.09,0.00065,1.68983269e-06,0,0,0
54684,0.3828120978,0.09,0.00065,1.68983269e-06,0,0,0
54685,0.3841119692,0.09,0.00065,1.68983269e-06,0,0,0
54686,0.3854118404,0.09,0.00065,1.68983269e-06,0,0,0
54687,0.3867117118,0.09,0.00065,1.68983269e-06,0,0,0
54688,0.388011583,0.09,0.00065,1.68983269e-06,0,0,0
54689,0.3893114543,0.09,0.00065,1.68983269e-06,0,0,0
54690,0.3906113256,0.09,0.00065,1.68983269e-06,0,0,0
54691,0.3919111969,0.09,0.00065,1.68983269e-06,0,0,0
54692,0.3932110683,0.09,0.00065,1.68983269e-06,0,0,0
54693,0.3945109395,0.09,0.00065,1.68983269e-06,0,0,0
54694,0.3958108108,0.09,0.00065,1.68983269e-06,0,0,0
54695,0.3971106822,0.09,0.00065,1.68983269e-06,0,0,0
54696,0.3984105534,0.09,0.00065,1.68983269e-06,0,0,0
54697,0.3997104248,0.09,0.00065,1.68983269e-06,0,0,0
54698,0.4010102961,0.09,0.00065,1.68983269e-06,0,0,0
54699,0.4023101674,0.09,0.00065,1.68983269e-06,0,0,0
54700,0.4036100386,0.09,0.00065,1.68983269e-06,0,0,0
54701,0.4049099099,0.09,0.00065,1.68983269e-06,0,0,0
54702,0.4062097812,0.09,0.00065,1.68983269e-06,0,0,0
54703,0.4075096525,0.09,0.00065,1.68983269e-06,0,0,0
54704,0.4088095238,0.09,0.00065,1.68983269e-06,0,0,0
54705,0.4101093951,0.09,0.00065,1.68983269e-06,0,0,0
54706,0.4114092664,0.09,0.00065,1.68983269e-06,0,0,0
54707,0.4127091377,0.09,0.00065,1.68983269e-06,0,0,0
54708,0.414009009,0.09,0.00065,1.68983269e-06,0,0,0
54709,0.4153088803,0.09,0.00065,1.68983269e-06,0,0,0
54710,0.4166087516,0.09,0.00065,1.68983269e-06,0,0,0
54711,0.4179086229,0.09,0.00065,1.68983269e-06,0,0,0
54712,0.4192084942,0.09,0.00065,1.68983269e-06,0,0,0
54713,0.4205083655,0.09,0.00065,1.68983269e-06,0,0,0
54714,0.4218082368,0.09,0.00065,1.68983269e-06,0,0,0
54715,0.4231081081,0.09,0.00065,1.68983269e-06,0,0,0
54716,0.4244079795,0.09,0.00065,1.68983269e-06,0,0,0
54717,0.4257078508,0.09,0.00065,1.68983269e-06,0,0,0
54718,0.4270077221,0.09,0.00065,1.68983269e-06,0,0,0
54719,0.4283075934,0.09,0.00065,1.68983269e-06,0,0,0
54720,0.4296074646,0.09,0.00065,1.68983269e-06,0,0,0
54721,0.430907336,0.09,0.00065,1.68983269e-06,0,0,0
54722,0.4322072072,0.09,0.00065,1.68983269e-06,0,0,0
54723,0.4335070786,0.09,0.00065,1.68983269e-06,0,0,0
54724,0.4348069498,0.09,0.00065,1.68983269e-06,0,0,0
54725,0.4361068211,0.09,0.00065,1.68983269e-06,0,0,0
54726,0.4374066924,0.09,0.00065,1.68983269e-06,0,0,0
54727,0.4387065638,0.09,0.00065,1.68983269e-06,0,0,0
54728,0.4400064351,0.09,0.00065,1.68983269e-06,0,0,0
54729,0.4413063064,0.09,0.00065,1.68983269e-06,0,0,0
54730,0.4426061776,0.09,0.00065,1.68983269e-06,0,0,0
54731,0.443906049,0.09,0.00065,1.68983269e-06,0,0,0
54732,0.4452059202,0.09,0.00065,1.68983269e-06,0,0,0
54733,0.4465057916,0.09,0.00065,1.68983269e-06,0,0,0
54734,0.4478056629,0.09,0.00065,1.68983269e-06,0,0,0
54735,0.4491055341,0.09,0.00065,1.68983269e-06,0,0,0
54736,0.4504054054,0.09,0.00065,1.68983269e-06,0,0,0
54737,0.4517052767,0.09,0.00065,1.68983269e-06,0,0,0
54738,0.4530051481,0.09,0.00065,1.68983269e-06,0,0,0
54739,0.4543050193,0.09,0.00065,1.68983269e-06,0,0,0
54740,0.4556048906,0.09,0.00065,1.68983269e-06,0,0,0
54741,0.4569047619,0.09,0.00065,1.68983269e-06,0,0,0
54742,0.4582046332,0.09,0.00065,1.68983269e-06,0,0,0
54743,0.4595045046,0.09,0.00065,1.68983269e-06,0,0,0
54744,0.4608043759,0.09,0.00065,1.68983269e-06,0,0,0
54745,0.4621042471,0.09,0.00065,1.68983269e-06,0,0,0
54746,0.4634041185,0.09,0.00065,1.68983269e-06,0,0,0
54747,0.4647039897,0.09,0.00065,1.68983269e-06,0,0,0
54748,0.466003861,0.09,0.00065,1.68983269e-06,0,0,0
54749,0.4673037323,0.09,0.00065,1.68983269e-06,0,0,0
54750,0.4686036036,0.09,0.00065,1.68983269e-06,0,0,0
54751,0.469903475,0.09,0.00065,1.68983269e-06,0,0,0
54752,0.4712033462,0.09,0.00065,1.68983269e-06,0,0,0
54753,0.4725032175,0.09,0.00065,1.68983269e-06,0,0,0
54754,0.4738030888,0.09,0.00065,1.68983269e-06,0,0,0
54755,0.4751029602,0.09,0.00065,1.68983269e-06,0,0,0
54756,0.4764028315,0.09,0.00065,1.68983269e-06,0,0,0
54757,0.4777027027,0.09,0.00065,1.68983269e-06,0,0,0
54758,0.4790025741,0.09,0.00065,1.68983269e-06,0,0,0
54759,0.4803024453,0.09,0.00065,1.68983269e-06,0,0,0
54760,0.4816023167,0.09,0.00065,1.68983269e-06,0,0,0
54761,0.482902188,0.09,0.00065,1.68983269e-06,0,0,0
54762,0.4842020592,0.09,0.00065,1.68983269e-06,0,0,0
54763,0.4855019306,0.09,0.00065,1.68983269e-06,0,0,0
54764,0.4868018018,0.09,0.00065,1.68983269e-06,0,0,0
54765,0.4881016732,0.09,0.00065,1.68983269e-06,0,0,0
54766,0.4894015445,0.09,0.00065,1.68983269e-06,0,0,0
54767,0.4907014157,0.09,0.00065,1.68983269e-06,0,0,0
54768,0.4920012871,0.09,0.00065,1.68983269e-06,0,0,0
54769,0.4933011583,0.09,0.00065,1.68983269e-06,0,0,0
54770,0.4946010296,0.09,0.00065,1.68983269e-06,0,0,0
54771,0.4959009009,0.09,0.00065,1.68983269e-06,0,0,0
54772,0.4972007723,0.09,0.00065,1.68983269e-06,0,0,0
54773,0.4985006436,0.09,0.00065,1.68983269e-06,0,0,0
54774,0.4998005148,0.09,0.00065,1.68983269e-06,0,0,0
54775,0.5011003862,0.09,0.00065,1.68983269e-06,0,0,0
54776,0.5024002574,0.09,0.00065,1.68983269e-06,0,0,0
54777,0.5037001287,0.09,0.00065,1.68983269e-06,0,0,0
54778,0.505,0.09,0.00065,1.68983256e-06,0,0,0
54779,0.5062998713,0.09,0.00065,1.68983269e-06,0,0,0
54780,0.5075997426,0.09,0.00065,1.68983269e-06,0,0,0
54781,0.5088996138,0.09,0.00065,1.68983269e-06,0,0,0
54782,0.5101994851,0.09,0.00065,1.68983269e-06,0,0,0
54783,0.5114993564,0.09,0.00065,1.68983269e-06,0,0,0
54784,0.5127992278,0.09,0.00065,1.68983269e-06,0,0,0
54785,0.5140990991,0.09,0.00065,1.68983269e-06,0,0,0
54786,0.5153989703,0.09,0.00065,1.68983269e-06,0,0,0
54787,0.5166988417,0.09,0.00065,1.68983269e-06,0,0,0
54788,0.5179987129,0.09,0.00065,1.68983269e-06,0,0,0
54789,0.5192985842,0.09,0.00065,1.68983269e-06,0,0,0
54790,0.5205984556,0.09,0.00065,1.68983269e-06,0,0,0
54791,0.5218983268,0.09,0.00065,1.68983269e-06,0,0,0
54792,0.5231981982,0.09,0.00065,1.68983269e-06,0,0,0
54793,0.5244980694,0.09,0.00065,1.68983269e-06,0,0,0
54794,0.5257979407,0.09,0.00065,1.68983269e-06,0,0,0
54795,0.527097812,0.09,0.00065,1.68983269e-06,0,0,0
54796,0.5283976833,0.09,0.00065,1.68983269e-06,0,0,0
54797,0.5296975547,0.09,0.00065,1.68983269e-06,0,0,0
54798,0.5309974259,0.09,0.00065,1.68983269e-06,0,0,0
54799,0.5322972972,0.09,0.00065,1.68983269e-06,0,0,0
54800,0.5335971686,0.09,0.00065,1.68983269e-06,0,0,0
54801,0.5348970398,0.09,0.00065,1.68983269e-06,0,0,0
54802,0.5361969112,0.09,0.00065,1.68983269e-06,0,0,0
54803,0.5374967825,0.09,0.00065,1.68983269e-06,0,0,0
54804,0.5387966537,0.09,0.00065,1.68983269e-06,0,0,0
54805,0.540096525,0.09,0.00065,1.68983269e-06,0,0,0
54806,0.5413963963,0.09,0.00065,1.68983269e-06,0,0,0
54807,0.5426962677,0.09,0.00065,1.68983269e-06,0,0,0
54808,0.5439961389,0.09,0.00065,1.68983269e-06,0,0,0
54809,0.5452960102,0.09,0.00065,1.68983269e-06,0,0,0
54810,0.5465958816,0.09,0.00065,1.68983269e-06,0,0,0
54811,0.5478957528,0.09,0.00065,1.68983269e-06,0,0,0
54812,0.5491956242,0.09,0.00065,1.68983269e-06,0,0,0
54813,0.5504954954,0.09,0.00065,1.68983269e-06,0,0,0
54814,0.5517953667,0.09,0.00065,1.68983269e-06,0,0,0
54815,0.553095238,0.09,0.00065,1.68983269e-06,0,0,0
54816,0.5543951093,0.09,0.00065,1.68983269e-06,0,0,0
54817,0.5556949807,0.09,0.00065,1.68983269e-06,0,0,0
54818,0.556994852,0.09,0.00065,1.68983269e-06,0,0,0
54819,0.5582947232,0.09,0.00065,1.68983269e-06,0,0,0
54820,0.5595945946,0.09,0.00065,1.68983269e-06,0,0,0
54821,0.5608944658,0.09,0.00065,1.68983269e-06,0,0,0
54822,0.5621943372,0.09,0.00065,1.68983269e-06,0,0,0
54823,0.5634942084,0.09,0.00065,1.68983269e-06,0,0,0
54824,0.5647940797,0.09,0.00065,1.68983269e-06,0,0,0
54825,0.5660939511,0.09,0.00065,1.68983269e-06,0,0,0
54826,0.5673938223,0.09,0.00065,1.68983269e-06,0,0,0
54827,0.5686936936,0.09,0.00065,1.68983269e-06,0,0,0
54828,0.569993565,0.09,0.00065,1.68983269e-06,0,0,0
54829,0.5712934362,0.09,0.00065,1.68983269e-06,0,0,0
54830,0.5725933075,0.09,0.00065,1.68983269e-06,0,0,0
54831,0.5738931788,0.09,0.00065,1.68983269e-06,0,0,0
54832,0.5751930501,0.09,0.00065,1.68983269e-06,0,0,0
54833,0.5764929214,0.09,0.00065,1.68983269e-06,0,0,0
54834,0.5777927927,0.09,0.00065,1.68983269e-06,0,0,0
54835,0.5790926641,0.09,0.00065,1.68983269e-06,0,0,0
54836,0.5803925353,0.09,0.00065,1.68983269e-06,0,0,0
54837,0.5816924066,0.09,0.00065,1.68983269e-06,0,0,0
54838,0.5829922779,0.09,0.00065,1.68983269e-06,0,0,0
54839,0.5842921492,0.09,0.00065,1.68983269e-06,0,0,0
54840,0.5855920205,0.09,0.00065,1.68983269e-06,0,0,0
54841,0.5868918918,0.09,0.00065,1.68983269e-06,0,0,0
54842,0.5881917631,0.09,0.00065,1.68983269e-06,0,0,0
54843,0.5894916344,0.09,0.00065,1.68983269e-06,0,0,0
54844,0.5907915057,0.09,0.00065,1.68983269e-06,0,0,0
54845,0.5920913771,0.09,0.00065,1.68983269e-06,0,0,0
54846,0.5933912484,0.09,0.00065,1.68983269e-06,0,0,0
54847,0.5946911196,0.09,0.00065,1.68983269e-06,0,0,0
54848,0.5959909909,0.09,0.00065,1.68983269e-06,0,0,0
54849,0.5972908622,0.09,0.00065,1.68983269e-06,0,0,0
54850,0.5985907336,0.09,0.00065,1.68983269e-06,0,0,0
54851,0.5998906049,0.09,0.00065,1.68983269e-06,0,0,0
54852,0.6011904761,0.09,0.00065,1.68983269e-06,0,0,0
54853,0.6024903475,0.09,0.00065,1.68983269e-06,0,0,0
54854,0.6037902187,0.09,0.00065,1.68983269e-06,0,0,0
54855,0.60509009,0.09,0.00065,1.68983269e-06,0,0,0
54856,0.6063899613,0.09,0.00065,1.68983269e-06,0,0,0
54857,0.6076898326,0.09,0.00065,1.68983269e-06,0,0,0
54858,0.6089897039,0.09,0.00065,1.68983269e-06,0,0,0
54859,0.6102895752,0.09,0.00065,1.68983269e-06,0,0,0
54860,0.6115894465,0.09,0.00065,1.68983269e-06,0,0,0
54861,0.6128893178,0.09,0.00065,1.68983269e-06,0,0,0
54862,0.6141891891,0.09,0.00065,1.68983269e-06,0,0,0
54863,0.6154890604,0.09,0.00065,1.68983269e-06,0,0,0
54864,0.6167889317,0.09,0.00065,1.68983269e-06,0,0,0
54865,0.618088803,0.09,0.00065,1.68983269e-06,0,0,0
54866,0.6193886743,0.09,0.00065,1.68983269e-06,0,0,0
54867,0.6206885456,0.09,0.00065,1.68983269e-06,0,0,0
54868,0.621988417,0.09,0.00065,1.68983269e-06,0,0,0
54869,0.6232882882,0.09,0.00065,1.68983269e-06,0,0,0
54870,0.6245881595,0.09,0.00065,1.68983269e-06,0,0,0
54871,0.6258880308,0.09,0.00065,1.68983269e-06,0,0,0
54872,0.6271879021,0.09,0.00065,1.68983269e-06,0,0,0
54873,0.6284877734,0.09,0.00065,1.68983269e-06,0,0,0
54874,0.6297876447,0.09,0.00065,1.68983269e-06,0,0,0
54875,0.631087516,0.09,0.00065,1.68983269e-06,0,0,0
54876,0.6323873873,0.09,0.00065,1.68983269e-06,0,0,0
54877,0.6336872586,0.09,0.00065,1.68983269e-06,0,0,0
54878,0.6349871299,0.09,0.00065,1.68983269e-06,0,0,0
54879,0.6362870012,0.09,0.00065,1.68983269e-06,0,0,0
54880,0.6375868726,0.09,0.00065,1.68983269e-06,0,0,0
54881,0.6388867438,0.09,0.00065,1.68983269e-06,0,0,0
54882,0.6401866151,0.09,0.00065,1.68983269e-06,0,0,0
54883,0.6414864865,0.09,0.00065,1.68983269e-06,0,0,0
54884,0.6427863578,0.09,0.00065,1.68983269e-06,0,0,0
54885,0.6440862291,0.09,0.00065,1.68983269e-06,0,0,0
54886,0.6453861003,0.09,0.00065,1.68983269e-06,0,0,0
54887,0.6466859716,0.09,0.00065,1.68983269e-06,0,0,0
54888,0.647985843,0.09,0.00065,1.68983269e-06,0,0,0
54889,0.6492857142,0.09,0.00065,1.68983269e-06,0,0,0
54890,0.6505855855,0.09,0.00065,1.68983269e-06,0,0,0
54891,0.6518854568,0.09,0.00065,1.68983269e-06,0,0,0
54892,0.6531853281,0.09,0.00065,1.68983269e-06,0,0,0
54893,0.6544851994,0.09,0.00065,1.68983269e-06,0,0,0
54894,0.6557850707,0.09,0.00065,1.68983269e-06,0,0,0
54895,0.657084942,0.09,0.00065,1.68983269e-06,0,0,0
54896,0.6583848133,0.09,0.00065,1.68983269e-06,0,0,0
54897,0.6596846846,0.09,0.00065,1.68983269e-06,0,0,0
54898,0.660984556,0.09,0.00065,1.68983269e-06,0,0,0
54899,0.6622844272,0.09,0.00065,1.68983269e-06,0,0,0
54900,0.6635842985,0.09,0.00065,1.68983269e-06,0,0,0
54901,0.6648841698,0.09,0.00065,1.68983269e-06,0,0,0
54902,0.6661840411,0.09,0.00065,1.68983269e-06,0,0,0
54903,0.6674839124,0.09,0.00065,1.68983269e-06,0,0,0
54904,0.6687837837,0.09,0.00065,1.68983269e-06,0,0,0
54905,0.670083655,0.09,0.00065,1.68983269e-06,0,0,0
54906,0.6713835264,0.09,0.00065,1.68983269e-06,0,0,0
54907,0.6726833976,0.09,0.00065,1.68983269e-06,0,0,0
54908,0.6739832689,0.09,0.00065,1.68983269e-06,0,0,0
54909,0.6752831402,0.09,0.00065,1.68983269e-06,0,0,0
54910,0.6765830116,0.09,0.00065,1.68983269e-06,0,0,0
54911,0.6778828828,0.09,0.00065,1.68983269e-06,0,0,0
54912,0.6791827541,0.09,0.00065,1.68983269e-06,0,0,0
54913,0.6804826254,0.09,0.00065,1.68983269e-06,0,0,0
54914,0.6817824967,0.09,0.00065,1.68983269e-06,0,0,0
54915,0.683082368,0.09,0.00065,1.68983269e-06,0,0,0
54916,0.6843822393,0.09,0.00065,1.68983269e-06,0,0,0
54917,0.6856821107,0.09,0.00065,1.68983269e-06,0,0,0
54918,0.6869819819,0.09,0.00065,1.68983269e-06,0,0,0
54919,0.6882818532,0.09,0.00065,1.68983269e-06,0,0,0
54920,0.6895817245,0.09,0.00065,1.68983269e-06,0,0,0
54921,0.6908815959,0.09,0.00065,1.68983269e-06,0,0,0
54922,0.6921814671,0.09,0.00065,1.68983269e-06,0,0,0
54923,0.6934813385,0.09,0.00065,1.68983269e-06,0,0,0
54924,0.6947812097,0.09,0.00065,1.68983269e-06,0,0,0
54925,0.696081081,0.09,0.00065,1.68983269e-06,0,0,0
54926,0.6973809523,0.09,0.00065,1.68983269e-06,0,0,0
54927,0.6986808236,0.09,0.00065,1.68983269e-06,0,0,0
54928,0.6999806949,0.09,0.00065,1.68983269e-06,0,0,0
54929,0.7012805662,0.09,0.00065,1.68983269e-06,0,0,0
54930,0.7025804375,0.09,0.00065,1.68983269e-06,0,0,0
54931,0.7038803089,0.09,0.00065,1.68983269e-06,0,0,0
54932,0.7051801801,0.09,0.00065,1.68983269e-06,0,0,0
54933,0.7064800515,0.09,0.00065,1.68983269e-06,0,0,0
54934,0.7077799227,0.09,0.00065,1.68983269e-06,0,0,0
54935,0.709079794,0.09,0.00065,1.68983269e-06,0,0,0
54936,0.7103796654,0.09,0.00065,1.68983269e-06,0,0,0
54937,0.7116795366,0.09,0.00065,1.68983269e-06,0,0,0
54938,0.7129794079,0.09,0.00065,1.68983269e-06,0,0,0
54939,0.7142792793,0.09,0.00065,1.68983269e-06,0,0,0
54940,0.7155791505,0.09,0.00065,1.68983269e-06,0,0,0
54941,0.7168790219,0.09,0.00065,1.68983269e-06,0,0,0
54942,0.7181788931,0.09,0.00065,1.68983269e-06,0,0,0
54943,0.7194787644,0.09,0.00065,1.68983269e-06,0,0,0
54944,0.7207786358,0.09,0.00065,1.68983269e-06,0,0,0
54945,0.722078507,0.09,0.00065,1.68983269e-06,0,0,0
54946,0.7233783783,0.09,0.00065,1.68983269e-06,0,0,0
54947,0.7246782496,0.09,0.00065,1.68983269e-06,0,0,0
54948,0.725978121,0.09,0.00065,1.68983269e-06,0,0,0
54949,0.7272779923,0.09,0.00065,1.68983269e-06,0,0,0
54950,0.7285778635,0.09,0.00065,1.68983269e-06,0,0,0
54951,0.7298777349,0.09,0.00065,1.68983269e-06,0,0,0
54952,0.7311776062,0.09,0.00065,1.68983269e-06,0,0,0
54953,0.7324774774,0.09,0.00065,1.68983269e-06,0,0,0
54954,0.7337773488,0.09,0.00065,1.68983269e-06,0,0,0