/*--------------------------------*- C++ -*----------------------------------*\
| =========                 |                                                 |
| \\      /  F ield         | OpenFOAM: The Open Source CFD Toolbox           |
|  \\    /   O peration     | Version:  2312                                  |
|   \\  /    A nd           | Website:  www.openfoam.com                      |
|    \\/     M anipulation  |                                                 |
\*---------------------------------------------------------------------------*/
FoamFile
{
    version     2.0;
    format      ascii;
    arch        "LSB;label=32;scalar=64";
    class       volVectorField;
    location    "2000";
    object      f;
}
// * * * * * * * * * * * * * * * * * * * * * * * * * * * * * * * * * * * * * //

dimensions      [0 1 -2 0 0 0 0];

internalField   nonuniform List<vector> 
79626
(
(0.529995316 -10.19793496 0)
(2.839851092 -10.26223611 0)
(7.989336248 -9.017347769 0)
(16.22170736 -5.833132056 0)
(25.58278346 -1.851394638 0)
(33.6024675 1.986299691 0)
(39.23138455 4.622125121 0)
(40.8604777 5.586582078 0)
(37.75125195 5.249891362 0)
(31.20664546 4.235532411 0)
(23.1171175 3.097390225 0)
(15.12960779 2.076583917 0)
(8.074640166 1.22799178 0)
(2.242264836 0.6022448588 0)
(-2.533205213 0.1653793346 0)
(-6.06900761 -0.1357646766 0)
(-8.4150831 -0.3326102958 0)
(-9.745852588 -0.4765005221 0)
(-10.47363921 -0.5697630851 0)
(-10.77886754 -0.6114096943 0)
(-10.70035049 -0.6335597145 0)
(-10.29787653 -0.6651934318 0)
(-9.593518452 -0.6901016301 0)
(-8.623003138 -0.6899311117 0)
(-7.455634986 -0.6634939622 0)
(-6.176073732 -0.6153137273 0)
(-4.814687851 -0.5464473972 0)
(-3.411560716 -0.4660496823 0)
(-2.09548752 -0.3741761744 0)
(-0.9586809043 -0.2830972727 0)
(0.01512032022 -0.163564913 0)
(0.7926556116 -0.06414651432 0)
(1.31997842 0.02036137326 0)
(1.664882137 0.1071221767 0)
(1.876995793 0.1956311044 0)
(1.952426977 0.2786145395 0)
(1.880194855 0.3465004933 0)
(1.653630163 0.3942502817 0)
(1.284841568 0.4220064471 0)
(0.8084529656 0.4439788709 0)
(0.2448063683 0.4542473448 0)
(-0.3823642805 0.4425772655 0)
(-1.053162749 0.4221028639 0)
(-1.734003519 0.3956572916 0)
(-2.389674883 0.3679568086 0)
(-3.029049377 0.3407446394 0)
(-3.632849207 0.3061937914 0)
(-4.189821711 0.2651958455 0)
(-4.696877092 0.2229329994 0)
(-5.144899652 0.1842251208 0)
(-5.523773388 0.141635514 0)
(-5.834587638 0.09968875334 0)
(-6.057195973 0.05754097315 0)
(-6.190660537 0.01496577112 0)
(-6.255048991 -0.02732559224 0)
(-6.248761299 -0.06585305436 0)
(-6.156616599 -0.1020332583 0)
(-5.973407502 -0.1363965208 0)
(-5.698957663 -0.1685954651 0)
(-5.336249794 -0.1980266829 0)
(-4.891216388 -0.2240454498 0)
(-4.372571784 -0.2460427052 0)
(-3.791537096 -0.2634961257 0)
(-3.161403345 -0.2759923461 0)
(-2.496845279 -0.2833072676 0)
(-1.812759615 -0.2855445862 0)
(-1.119921348 -0.2830733376 0)
(-0.426578214 -0.2756230354 0)
(0.2564550532 -0.2625562074 0)
(0.916451215 -0.243715528 0)
(1.540094198 -0.2195037875 0)
(2.114986667 -0.1907211959 0)
(2.630984804 -0.1584483728 0)
(3.080926132 -0.1239791209 0)
(3.460620162 -0.08876521027 0)
(3.76784749 -0.05422633402 0)
(4.000236716 -0.02119858067 0)
(4.153362979 0.01081213735 0)
(4.230890398 0.04238839747 0)
(4.243357589 0.07551193668 0)
(4.190254801 0.1096065494 0)
(4.06455107 0.1432814015 0)
(3.863921277 0.1754946282 0)
(3.590446544 0.2053974071 0)
(3.249529378 0.2322046179 0)
(2.849194115 0.2552437049 0)
(2.399345983 0.2740289257 0)
(1.91088811 0.2883188207 0)
(1.394742621 0.2981397428 0)
(0.8609214259 0.3037942214 0)
(0.3174730165 0.3057563404 0)
(-0.2305294606 0.3044023843 0)
(-0.7786248337 0.2994044674 0)
(-1.320603628 0.2907095151 0)
(-1.849339973 0.278524679 0)
(-2.357584912 0.2632737296 0)
(-2.838588956 0.2454980629 0)
(-3.286571163 0.2257823181 0)
(-3.696988645 0.2046933374 0)
(-4.066638195 0.1827769281 0)
(-4.39364851 0.160543477 0)
(-4.677406878 0.1384656355 0)
(-4.918438804 0.116988301 0)
(-5.11819095 0.09655402651 0)
(-5.278516991 0.07760952586 0)
(-5.400565875 0.06027387065 0)
(-5.483603562 0.04355600756 0)
(-5.530528534 0.0255759136 0)
(-5.546048214 0.00710679621 0)
(-5.527399544 -0.01023174852 0)
(-5.468758908 -0.02682030267 0)
(-5.366772409 -0.04319234602 0)
(-5.219497662 -0.05948719053 0)
(-5.02597044 -0.07558793059 0)
(-4.786198625 -0.09127875087 0)
(-4.501221925 -0.1063122787 0)
(-4.173136165 -0.1204319625 0)
(-3.805060192 -0.1333818715 0)
(-3.401058763 -0.1449168346 0)
(-2.96603476 -0.1548269018 0)
(-2.505587857 -0.1629340737 0)
(-2.025819191 -0.1691136363 0)
(-1.533030617 -0.1733219154 0)
(-1.03323982 -0.1756635587 0)
(-0.5312275072 -0.1763128114 0)
(-0.03057824629 -0.1752012812 0)
(0.4644011099 -0.1717832814 0)
(0.9478325024 -0.1657624329 0)
(1.41304191 -0.1570558209 0)
(1.853251262 -0.1457798434 0)
(2.262164736 -0.1322135253 0)
(2.634435877 -0.1167429804 0)
(2.965990837 -0.09983307067 0)
(3.254210565 -0.08198403051 0)
(3.497996518 -0.06370499281 0)
(3.697728747 -0.04550402801 0)
(3.854960159 -0.02791954734 0)
(3.971289786 -0.01154991999 0)
(4.046011163 0.003957459177 0)
(4.081403216 0.02060369629 0)
(4.080799292 0.03854114716 0)
(4.040870651 0.05697371045 0)
(3.956519249 0.07582614449 0)
(3.824945039 0.09475367267 0)
(3.645103601 0.1133905328 0)
(3.417528898 0.1313101952 0)
(3.144291 0.1480844942 0)
(2.828925237 0.1633217696 0)
(2.476245398 0.1766858274 0)
(2.092043224 0.1879259839 0)
(1.682698492 0.1969168531 0)
(1.25470995 0.2036668158 0)
(0.8141691664 0.208333703 0)
(0.3662322605 0.211226371 0)
(-0.08543638921 0.2126467065 0)
(-0.5382615391 0.212612701 0)
(-0.9892082826 0.2108467202 0)
(-1.434254581 0.2072601842 0)
(-1.86897966 0.2018924638 0)
(-2.288948835 0.1948684134 0)
(-2.690015381 0.1863634558 0)
(-3.068523857 0.1765811969 0)
(-3.421440391 0.1657332513 0)
(-3.746424226 0.1540298948 0)
(-4.041852502 0.1416827866 0)
(-4.306806911 0.1288994853 0)
(-4.541030632 0.1158804942 0)
(-4.744866364 0.1028169219 0)
(-4.919191199 0.08989177025 0)
(-5.065361698 0.07729348446 0)
(-5.18510626 0.06524014157 0)
(-5.280028166 0.05410008238 0)
(-5.349804933 0.04370095044 0)
(-5.394624055 0.03248510225 0)
(-5.417113352 0.02004290919 0)
(-5.416325773 0.007630556747 0)
(-5.387753095 -0.004565511213 0)
(-5.328061858 -0.01682987909 0)
(-5.234965337 -0.02933276807 0)
(-5.106790169 -0.04207758005 0)
(-4.942453704 -0.05497837556 0)
(-4.741501455 -0.06789776997 0)
(-4.504119891 -0.08065987549 0)
(-4.231134774 -0.0930632435 0)
(-3.924005358 -0.1048965214 0)
(-3.584803451 -0.1159501785 0)
(-3.216167125 -0.126019923 0)
(-2.821235336 -0.1349279267 0)
(-2.403575415 -0.1425209354 0)
(-1.967104038 -0.1486845797 0)
(-1.51598099 -0.153357438 0)
(-1.054419184 -0.156552805 0)
(-0.5863142908 -0.1584231868 0)
(-0.1146958087 -0.1590909548 0)
(0.3575784694 -0.1583623887 0)
(0.8264846021 -0.1558437848 0)
(1.286704508 -0.1512977187 0)
(1.732188916 -0.144646014 0)
(2.156708855 -0.1359580375 0)
(2.55435742 -0.125420964 0)
(2.919953827 -0.1132993016 0)
(3.249335051 -0.0999195563 0)
(3.539534006 -0.08564058087 0)
(3.788854517 -0.07083153625 0)
(3.996861751 -0.05585448532 0)
(4.164308085 -0.04102728064 0)
(4.292982422 -0.02674754507 0)
(4.385148908 -0.01349643595 0)
(4.441700447 -0.001022914916 0)
(4.464933985 0.0124282152 0)
(4.456508933 0.02705603711 0)
(4.412829164 0.04214567064 0)
(4.329292027 0.05771678935 0)
(4.203119534 0.0736632521 0)
(4.032854332 0.08971263181 0)
(3.81831119 0.1055827459 0)
(3.560566169 0.1209609011 0)
(3.261945934 0.135513372 0)
(2.925981382 0.1489143707 0)
(2.557281939 0.1608806668 0)
(2.161293399 0.1711924911 0)
(1.743944363 0.1797366791 0)
(1.311218347 0.1864899044 0)
(0.8686969917 0.1915394409 0)
(0.4211032821 0.195092881 0)
(-0.0281189882 0.1974238148 0)
(-0.4767455176 0.1985886403 0)
(-0.922477515 0.198305229 0)
(-1.362119558 0.1964132525 0)
(-1.792012978 0.19287381 0)
(-2.208373253 0.1877477119 0)
(-2.607523933 0.1811578958 0)
(-2.986085157 0.1732692225 0)
(-3.341098506 0.1642774637 0)
(-3.670114705 0.1543861497 0)
(-3.971249733 0.143810547 0)
(-4.243213277 0.1327648731 0)
(-4.485312875 0.1214551328 0)
(-4.697436832 0.1100735587 0)
(-4.880018625 0.09879407387 0)
(-5.033985998 0.08776872058 0)
(-5.160700452 0.07712655665 0)
(-5.261896516 0.06697901601 0)
(-5.339609397 0.05741068928 0)
(-5.395997351 0.04866893986 0)
(-5.432432812 0.0406277194 0)
(-5.450530839 0.03213708429 0)
(-5.451703099 0.02294024653 0)
(-5.434128754 0.01376294575 0)
(-5.394457475 0.00465119586 0)
(-5.330330956 -0.004568423139 0)
(-5.239861887 -0.01401093676 0)
(-5.121458203 -0.02369583975 0)
(-4.973852449 -0.03357217127 0)
(-4.79617828 -0.04354869649 0)
(-4.588041082 -0.0535210129 0)
(-4.349548262 -0.06337999994 0)
(-4.081302029 -0.07301279587 0)
(-3.784381659 -0.08230062526 0)
(-3.460331421 -0.09111886179 0)
(-3.111153442 -0.09934033779 0)
(-2.739291184 -0.1068455963 0)
(-2.347588756 -0.1135319044 0)
(-1.939222831 -0.119309495 0)
(-1.517611517 -0.1241100862 0)
(-1.086293634 -0.1278943086 0)
(-0.648728298 -0.1306749053 0)
(-0.2079151202 -0.1325793008 0)
(0.2338985259 -0.133639645 0)
(0.6743730112 -0.1335732751 0)
(1.110123321 -0.1320498432 0)
(1.536841338 -0.1288446118 0)
(1.949686614 -0.1238660387 0)
(2.343664697 -0.1171458554 0)
(2.713996081 -0.1088167372 0)
(3.056417559 -0.09908082751 0)
(3.367412078 -0.08819981641 0)
(3.644362429 -0.07646815353 0)
(3.885632783 -0.06419238478 0)
(4.090587064 -0.05167338193 0)
(4.259558219 -0.0391935731 0)
(4.393781767 -0.02695783113 0)
(4.495329692 -0.01532196161 0)
(4.56676656 -0.004662070365 0)
(4.60967856 0.005308557875 0)
(4.625946547 0.01607546473 0)
(4.615970508 0.0279468793 0)
(4.576244798 0.04040949327 0)
(4.50271664 0.05345873056 0)
(4.392511355 0.06705788339 0)
(4.243642669 0.08098885479 0)
(4.055091375 0.09498047354 0)
(3.826883934 0.1087444731 0)
(3.560138929 0.1219936284 0)
(3.25702665 0.1344516759 0)
(2.920664695 0.1458646553 0)
(2.554977393 0.1560137318 0)
(2.164509895 0.1647233076 0)
(1.754183136 0.1719088916 0)
(1.328979366 0.1775728835 0)
(0.8935649183 0.1818235492 0)
(0.4518766594 0.1848800636 0)
(0.006741164902 0.1870243613 0)
(-0.4399917785 0.1883194794 0)
(-0.8862830293 0.1885196016 0)
(-1.329200483 0.1874692404 0)
(-1.765280248 0.1851107492 0)
(-2.190844205 0.1814689357 0)
(-2.60223077 0.1766200928 0)
(-2.995982363 0.1706751374 0)
(-3.368970135 0.1637665165 0)
(-3.718478971 0.1560289475 0)
(-4.04226378 0.1476056107 0)
(-4.338586442 0.1386406442 0)
(-4.606238664 0.1292764866 0)
(-4.844552344 0.1196512251 0)
(-5.053396792 0.109895552 0)
(-5.233161455 0.1001294883 0)
(-5.384723501 0.09045963507 0)
(-5.509402871 0.08097838668 0)
(-5.608913924 0.07176428573 0)
(-5.685315163 0.06288219169 0)
(-5.74089211 0.054610537 0)
(-5.777192234 0.04685555115 0)
(-5.795792149 0.03852329676 0)
(-5.797597866 0.02943290439 0)
(-5.780448767 0.02029482342 0)
(-5.740972238 0.0111340245 0)
(-5.676749011 0.001753676615 0)
(-5.585834709 -0.007906475243 0)
(-5.466615725 -0.01783929442 0)
(-5.317810772 -0.02799242003 0)
(-5.138494308 -0.03827781649 0)
(-4.928127862 -0.04858175675 0)
(-4.686617698 -0.05877830713 0)
(-4.414371459 -0.06873397836 0)
(-4.112329633 -0.07831309578 0)
(-3.78196412 -0.08738585274 0)
(-3.42524145 -0.09583228453 0)
(-3.044559941 -0.1035409229 0)
(-2.642678563 -0.110413203 0)
(-2.222648103 -0.116372935 0)
(-1.787743074 -0.1213592172 0)
(-1.341386421 -0.1253339858 0)
(-0.8870435615 -0.1282894174 0)
(-0.4280114863 -0.1302808356 0)
(0.03297449794 -0.1314635061 0)
(0.4938185503 -0.1318409558 0)
(0.9520640516 -0.1310958835 0)
(1.4041356 -0.128940998 0)
(1.845620623 -0.1251919117 0)
(2.271654991 -0.1197897628 0)
(2.677299954 -0.1127989005 0)
(3.057897982 -0.1043636101 0)
(3.409350972 -0.09469565233 0)
(3.728319703 -0.08405221352 0)
(4.012350232 -0.07271362408 0)
(4.259937994 -0.06096543436 0)
(4.470539924 -0.04908314342 0)
(4.644544306 -0.03731318741 0)
(4.783209033 -0.02584221725 0)
(4.888595766 -0.01490764557 0)
(4.963506436 -0.004930513407 0)
(5.010690689 0.004169199216 0)
(5.032461197 0.01333269236 0)
(5.029904714 0.02357868949 0)
(5.000749184 0.03467752384 0)
(4.940772439 0.0463296351 0)
(4.846804227 0.05859632095 0)
(4.716388452 0.07136805726 0)
(4.547800776 0.08447056417 0)
(4.340109586 0.09766638642 0)
(4.093255092 0.1107050779 0)
(3.808147606 0.1233173148 0)
(3.486734728 0.1352384751 0)
(3.131980844 0.1462210394 0)
(2.747757298 0.156052388 0)
(2.338647009 0.1645729044 0)
(1.909661701 0.1717081087 0)
(1.465890189 0.1774690774 0)
(1.012114433 0.1819516721 0)
(0.5524204475 0.1853460494 0)
(0.08980872246 0.1879306416 0)
(-0.3737716597 0.1897965412 0)
(-0.836383175 0.1907182581 0)
(-1.295332024 0.1905050046 0)
(-1.747404969 0.1890627963 0)
(-2.189190713 0.1863789208 0)
(-2.617292448 0.1824924549 0)
(-3.028477088 0.1774800583 0)
(-3.419774589 0.1714454035 0)
(-3.788549174 0.1645059018 0)
(-4.132557984 0.1567990797 0)
(-4.450000832 0.1484737865 0)
(-4.739558841 0.1396847358 0)
(-5.000418154 0.1305864843 0)
(-5.232275891 0.1213274263 0)
(-5.435327385 0.1120443193 0)
(-5.610235976 0.1028576055 0)
(-5.758088781 0.0938673354 0)
(-5.880345008 0.08515046721 0)
(-5.978787355 0.07673831847 0)
(-6.055503929 0.06868460381 0)
(-6.112893114 0.06124403479 0)
(-6.152737934 0.05432983343 0)
(-6.176413036 0.04702369227 0)
(-6.184503858 0.03899307304 0)
(-6.175046297 0.03084505969 0)
(-6.144740956 0.02264250575 0)
(-6.090999513 0.01410794674 0)
(-6.011584399 0.005148189684 0)
(-5.904494929 -0.004252299757 0)
(-5.767995895 -0.01404544121 0)
(-5.600716397 -0.02415200638 0)
(-5.401723118 -0.03447222707 0)
(-5.170546789 -0.04488523194 0)
(-4.907192674 -0.05525751133 0)
(-4.61214486 -0.0654528099 0)
(-4.286359235 -0.0753350984 0)
(-3.931252139 -0.08476903974 0)
(-3.548692289 -0.09362308223 0)
(-3.140988809 -0.1017758779 0)
(-2.710859746 -0.1091177065 0)
(-2.26137242 -0.1155707748 0)
(-1.795860356 -0.1210729229 0)
(-1.317825774 -0.1255841232 0)
(-0.8308149524 -0.1290940515 0)
(-0.3381950391 -0.1316523529 0)
(0.1572660933 -0.1334205762 0)
(0.6534695346 -0.1344074874 0)
(1.147980014 -0.1342923748 0)
(1.637212859 -0.1327596769 0)
(2.116635674 -0.129587821 0)
(2.581145577 -0.1246808222 0)
(3.025448788 -0.1180737168 0)
(3.4444393 -0.1098798218 0)
(3.833513371 -0.1002980019 0)
(4.18881305 -0.08958131451 0)
(4.507395553 -0.07801526304 0)
(4.787332494 -0.06589808526 0)
(5.027745034 -0.05352259248 0)
(5.228780388 -0.04112908558 0)
(5.391549617 -0.02897573257 0)
(5.518038897 -0.01730620753 0)
(5.611040864 -0.006398495759 0)
(5.67392873 0.003535228829 0)
(5.709473951 0.01291911514 0)
(5.719380762 0.02318720005 0)
(5.702307942 0.03463996007 0)
(5.653700344 0.04684049763 0)
(5.569185304 0.05980141559 0)
(5.445447921 0.07344547296 0)
(5.280012285 0.08757381446 0)
(5.071373425 0.1019723265 0)
(4.81909233 0.1163546526 0)
(4.52382435 0.1304201482 0)
(4.187313497 0.1438681389 0)
(3.81235785 0.1564086771 0)
(3.402715093 0.1677843376 0)
(2.962940806 0.1777843687 0)
(2.498174599 0.186254805 0)
(2.013872554 0.193132526 0)
(1.515471155 0.1984580421 0)
(1.007987147 0.2023755721 0)
(0.4955672025 0.2051477991 0)
(-0.01888885113 0.2070702719 0)
(-0.5333408215 0.2081550701 0)
(-1.04539928 0.2081364622 0)
(-1.551821823 0.2068679988 0)
(-2.048943915 0.2042966498 0)
(-2.532983271 0.2004425174 0)
(-3.000234459 0.1953721425 0)
(-3.447214854 0.1891879072 0)
(-3.870765728 0.1820038318 0)
(-4.268133364 0.1739558485 0)
(-4.637033074 0.1651917204 0)
(-4.975695054 0.155866651 0)
(-5.282891654 0.1461391702 0)
(-5.557947095 0.1361672293 0)
(-5.800731096 0.1261035623 0)
(-6.011637474 0.1160905886 0)
(-6.191548455 0.1062548363 0)
(-6.341786536 0.0967017066 0)
(-6.464057051 0.08750441441 0)
(-6.560387788 0.07868759052 0)
(-6.633089473 0.07031216469 0)
(-6.684779591 0.06260373124 0)
(-6.718006502 0.05540050286 0)
(-6.734968683 0.04807671153 0)
(-6.736455308 0.04017654083 0)
(-6.720477276 0.03206241202 0)
(-6.683737779 0.02396564243 0)
(-6.62371397 0.01558071827 0)
(-6.538242736 0.006777135095 0)
(-6.425394779 -0.002467936648 0)
(-6.283441672 -0.01211333165 0)
(-6.110896187 -0.0220869959 0)
(-5.906596335 -0.03228943332 0)
(-5.669781899 -0.04260723129 0)
(-5.400141215 -0.05291649604 0)
(-5.09784511 -0.06308422101 0)
(-4.763579555 -0.07297331413 0)
(-4.398563216 -0.08244907271 0)
(-4.004532204 -0.09138466646 0)
(-3.583691419 -0.09966491714 0)
(-3.138646479 -0.1071891342 0)
(-2.672330373 -0.1138691766 0)
(-2.187930307 -0.1196455351 0)
(-1.688813734 -0.1244785945 0)
(-1.178449517 -0.1283492198 0)
(-0.6603024048 -0.1312662911 0)
(-0.1376196459 -0.1333006 0)
(0.3869771871 -0.1346276316 0)
(0.9114445696 -0.1352407032 0)
(1.433275242 -0.134809731 0)
(1.948789919 -0.1330323386 0)
(2.453405164 -0.1296940485 0)
(2.942015207 -0.1247015701 0)
(3.409364297 -0.1180779319 0)
(3.850403904 -0.109920934 0)
(4.260581029 -0.1004063605 0)
(4.636057236 -0.08976156814 0)
(4.973861202 -0.07824729662 0)
(5.271981069 -0.06614103707 0)
(5.529402463 -0.05370777409 0)
(5.746100673 -0.04119970406 0)
(5.922997259 -0.02889783154 0)
(6.061885161 -0.01702138798 0)
(6.165353186 -0.005738993479 0)
(6.236800035 0.0045294698 0)
(6.279752102 0.01396910466 0)
(6.296996586 0.02376195357 0)
(6.288194375 0.03477830644 0)
(6.249504009 0.04668919222 0)
(6.175945548 0.05931557206 0)
(6.063794507 0.07277629294 0)
(5.909949238 0.08691564229 0)
(5.712048031 0.1014871325 0)
(5.468633468 0.1162562413 0)
(5.179310098 0.1309524542 0)
(4.84483435 0.1452283614 0)
(4.467146476 0.1587686147 0)
(4.049350038 0.171271272 0)
(3.595630238 0.1824705084 0)
(3.111078103 0.1921603037 0)
(2.601408968 0.2002107398 0)
(2.072593408 0.2066006275 0)
(1.530434432 0.2114212169 0)
(0.9801281332 0.214864733 0)
(0.4257999554 0.2172444449 0)
(-0.1297482529 0.2188263478 0)
(-0.684303443 0.2195399731 0)
(-1.235095276 0.2191231127 0)
(-1.778541317 0.2174463855 0)
(-2.310704916 0.2144669129 0)
(-2.827580624 0.2102076237 0)
(-3.325288126 0.204743843 0)
(-3.800233304 0.198171723 0)
(-4.249221766 0.190612755 0)
(-4.669537134 0.1822063699 0)
(-5.058989547 0.1731036061 0)
(-5.415941862 0.1634628201 0)
(-5.739320014 0.1534450196 0)
(-6.028609833 0.1432086553 0)
(-6.283840072 0.1329046142 0)
(-6.505551435 0.1226715932 0)
(-6.694753257 0.1126317433 0)
(-6.852870586 0.1028863999 0)
(-6.981682716 0.09348349287 0)
(-7.083266764 0.08449404299 0)
(-7.159945928 0.07596415323 0)
(-7.214295473 0.06800311214 0)
(-7.249093675 0.06056959701 0)
(-7.266983279 0.05323833214 0)
(-7.269393483 0.04540783641 0)
(-7.254777721 0.03723856305 0)
(-7.219653844 0.02901883659 0)
(-7.161020048 0.02054332667 0)
(-7.076361774 0.01164452559 0)
(-6.963436206 0.002265108053 0)
(-6.820289055 -0.007592998415 0)
(-6.645278336 -0.01784372329 0)
(-6.437113467 -0.02839273819 0)
(-6.194908926 -0.03912220687 0)
(-5.918237963 -0.04990150641 0)
(-5.607157387 -0.06059275613 0)
(-5.262206524 -0.07105456864 0)
(-4.88440004 -0.08114463331 0)
(-4.475225764 -0.09072334203 0)
(-4.036647177 -0.09965838283 0)
(-3.571097159 -0.1078293731 0)
(-3.081445449 -0.1151333135 0)
(-2.570931902 -0.121485448 0)
(-2.043073884 -0.1268355084 0)
(-1.501567032 -0.1311554243 0)
(-0.9501865676 -0.1344379989 0)
(-0.3926472113 -0.1367109659 0)
(0.167707667 -0.1380941663 0)
(0.7283148775 -0.1387587093 0)
(1.28701718 -0.1386084181 0)
(1.840925681 -0.1372713868 0)
(2.385947722 -0.1344622289 0)
(2.917177106 -0.1299989238 0)
(3.429257095 -0.1238313267 0)
(3.916766442 -0.1160051927 0)
(4.374571599 -0.1066552447 0)
(4.798115833 -0.09598647573 0)
(5.183634259 -0.08425098221 0)
(5.52829893 -0.0717295958 0)
(5.830299746 -0.05870449963 0)
(6.088868292 -0.04544577311 0)
(6.304255428 -0.03226773099 0)
(6.47766372 -0.01943074209 0)
(6.611157575 -0.007112773633 0)
(6.707577662 0.004489012496 0)
(6.770547812 0.01493621008 0)
(6.804100112 0.02448554693 0)
(6.81159718 0.03432610347 0)
(6.792425858 0.04534326464 0)
(6.742223486 0.05725216567 0)
(6.655833128 0.06984171457 0)
(6.529605389 0.08323722367 0)
(6.36060724 0.09726157452 0)
(6.146733659 0.1116886539 0)
(5.886785388 0.1262435003 0)
(5.580583365 0.1406821448 0)
(5.229047674 0.1547297788 0)
(4.834210312 0.1680606184 0)
(4.399162618 0.1803959234 0)
(3.927949197 0.1914853653 0)
(3.425421595 0.2011228256 0)
(2.897039564 0.2091660266 0)
(2.348598915 0.2155474171 0)
(1.785877525 0.2203272578 0)
(1.214217755 0.2236607552 0)
(0.6380647863 0.2258208514 0)
(0.0605381211 0.2271459391 0)
(-0.5162032703 0.2276861326 0)
(-1.089708496 0.2271821062 0)
(-1.656641604 0.225480875 0)
(-2.213191818 0.2225242673 0)
(-2.755416414 0.2183321753 0)
(-3.279472719 0.2129786766 0)
(-3.781783656 0.2065612276 0)
(-4.259136739 0.1991957598 0)
(-4.708745536 0.1910140074 0)
(-5.128290199 0.1821562518 0)
(-5.515946398 0.1727680045 0)
(-5.870406876 0.1629964285 0)
(-6.19089297 0.1529873286 0)
(-6.477152719 0.1428817139 0)
(-6.729445014 0.1328127008 0)
(-6.948509848 0.1229019246 0)
(-7.135526343 0.1132544293 0)
(-7.292060271 0.1039319942 0)
(-7.420010029 0.09501993098 0)
(-7.521547539 0.08657154925 0)
(-7.59907302 0.07856892001 0)
(-7.655255652 0.071147523 0)
(-7.693000411 0.06423215793 0)
(-7.714950464 0.05737181292 0)
(-7.722139837 0.0500151869 0)
(-7.712790668 0.04236221797 0)
(-7.683534839 0.03469665119 0)
(-7.631525161 0.02676263311 0)
(-7.554294855 0.01837307855 0)
(-7.449536575 0.00950526116 0)
(-7.315142123 0.0001535614876 0)
(-7.14925844 -0.009654578093 0)
(-6.950336915 -0.01981992571 0)
(-6.717183156 -0.03024386526 0)
(-6.449010498 -0.0408092435 0)
(-6.145495304 -0.05138546164 0)
(-5.806824567 -0.06183494423 0)
(-5.433722085 -0.07201716075 0)
(-5.027448122 -0.08179272567 0)
(-4.589775721 -0.09102720696 0)
(-4.122949173 -0.09959513558 0)
(-3.629631422 -0.1073851916 0)
(-3.112844445 -0.1143043819 0)
(-2.575903359 -0.1202764994 0)
(-2.022346235 -0.1252593579 0)
(-1.45586041 -0.1292277313 0)
(-0.8801905662 -0.1321776164 0)
(-0.2989684801 -0.1341492167 0)
(0.2846882496 -0.1353067832 0)
(0.8684382688 -0.1357567263 0)
(1.449877002 -0.1352772702 0)
(2.025552793 -0.1334994175 0)
(2.590810533 -0.1301514158 0)
(3.140222491 -0.1250807993 0)
(3.667989861 -0.1182615291 0)
(4.168347522 -0.1097523454 0)
(4.63591505 -0.09970390514 0)
(5.065975428 -0.0883300924 0)
(5.454678143 -0.07588844152 0)
(5.799172518 -0.06265121992 0)
(6.097679938 -0.04889204911 0)
(6.349516198 -0.03494693254 0)
(6.555061559 -0.02110683379 0)
(6.715691585 -0.007582789063 0)
(6.833684195 0.005413466612 0)
(6.912114673 0.0176521738 0)
(6.954814873 0.02871099849 0)
(6.966407554 0.0389745918 0)
(6.950907649 0.0496915678 0)
(6.907029141 0.06160076354 0)
(6.829479121 0.0744261105 0)
(6.712722243 0.08801958654 0)
(6.552729274 0.1025280153 0)
(6.346061241 0.1177375307 0)
(6.090109768 0.1333990563 0)
(5.783205641 0.1492192662 0)
(5.424744684 0.1648765201 0)
(5.015304008 0.1800971735 0)
(4.556711524 0.1945860492 0)
(4.05204359 0.2080209189 0)
(3.505529756 0.2201476173 0)
(2.922364285 0.2307678761 0)
(2.308438565 0.2397581988 0)
(1.669996227 0.2470796945 0)
(1.013223799 0.2528164137 0)
(0.34380785 0.2571601955 0)
(-0.3335215182 0.2604080649 0)
(-1.015455369 0.2629473523 0)
(-1.699829599 0.2648803336 0)
(-2.384344248 0.2659493685 0)
(-3.06583368 0.265969163 0)
(-3.740644601 0.2648440295 0)
(-4.405013116 0.2625548857 0)
(-5.055304245 0.2591391011 0)
(-5.688179684 0.2546532034 0)
(-6.300708854 0.2491811949 0)
(-6.890453101 0.2428288123 0)
(-7.455535863 0.2357188496 0)
(-7.994702646 0.2279865458 0)
(-8.507368705 0.2197735091 0)
(-8.993657377 0.2112215471 0)
(-9.454435772 0.2024664326 0)
(-9.891359133 0.1936316163 0)
(-10.30693668 0.1848151257 0)
(-10.70463214 0.1760861564 0)
(-11.08901115 0.1675103197 0)
(-11.46594393 0.1590732821 0)
(-11.84295778 0.1506177534 0)
(-12.23026689 0.1418671486 0)
(-12.6436261 0.1327000188 0)
(-13.10330128 0.1251584628 0)
(-13.60416272 0.1259698462 0)
(-14.13541446 0.1295526186 0)
(-14.732183 0.1323589306 0)
(-15.41432704 0.1421212077 0)
(-16.167364 0.1605162241 0)
(-16.98372269 0.1868405347 0)
(-17.8613898 0.2227810798 0)
(-18.77242594 0.2724317447 0)
(-19.6659432 0.3349384112 0)
(-20.50316358 0.4103066885 0)
(-21.21696784 0.4981044936 0)
(-21.70446005 0.5906493027 0)
(-21.86361861 0.6706666397 0)
(-21.60191873 0.714254006 0)
(-20.84604602 0.6914528402 0)
(-19.56850395 0.5793574681 0)
(-17.82652268 0.383383202 0)
(-15.75785712 0.1607122145 0)
(-13.45901377 0.01069855623 0)
(-10.91223771 0.05164470374 0)
(-7.657905732 0.6550553239 0)
(-0 0 0)
(0 -0 0)
(0 -0 0)
(0 -0 0)
(0 -0 0)
(0 -0 0)
(0 -0 0)
(0 -0 0)
(0.7982669144 -37.654544 0)
(4.233047192 -37.43700879 0)
(12.6900721 -30.27263819 0)
(23.7082902 -18.05092498 0)
(33.7758916 -4.547805158 0)
(40.43031499 6.967633807 0)
(43.0247952 14.2380202 0)
(41.51998465 16.87678437 0)
(36.34787103 15.90361082 0)
(28.94275665 12.95530079 0)
(20.84410126 9.509680661 0)
(13.15240933 6.403655663 0)
(6.591685069 3.835513311 0)
(1.136355681 1.869644703 0)
(-3.299481454 0.5322977239 0)
(-6.591354899 -0.3731370682 0)
(-8.772197159 -0.9944268796 0)
(-9.996965062 -1.399576597 0)
(-10.61511327 -1.70366184 0)
(-10.84406387 -1.936856661 0)
(-10.75090782 -2.125832369 0)
(-10.34613376 -2.271681652 0)
(-9.616559168 -2.342172706 0)
(-8.594668058 -2.326578612 0)
(-7.381603614 -2.229514736 0)
(-6.053501278 -2.046438202 0)
(-4.656434096 -1.803364311 0)
(-3.229020756 -1.515052411 0)
(-1.897862979 -1.193260655 0)
(-0.7399006833 -0.8754180973 0)
(0.2444513718 -0.5076767307 0)
(0.9856765558 -0.1814247693 0)
(1.498430881 0.1183884794 0)
(1.847498337 0.4231263647 0)
(2.055514492 0.7151668096 0)
(2.104134411 0.9720713582 0)
(1.993821676 1.179222675 0)
(1.736327953 1.335766921 0)
(1.346124997 1.440768097 0)
(0.8393544857 1.493411294 0)
(0.2393602373 1.517400833 0)
(-0.4205114881 1.486304024 0)
(-1.108244897 1.429153497 0)
(-1.786380912 1.358380826 0)
(-2.446040127 1.2686069 0)
(-3.094924047 1.155355642 0)
(-3.716374961 1.027004051 0)
(-4.278843198 0.8863405641 0)
(-4.781838605 0.7363351655 0)
(-5.230917592 0.5878384427 0)
(-5.612416272 0.4376907781 0)
(-5.922563012 0.292960391 0)
(-6.145635003 0.1593384596 0)
(-6.278901855 0.02755836301 0)
(-6.338790899 -0.1054148799 0)
(-6.325873613 -0.2305671784 0)
(-6.229007958 -0.3471851292 0)
(-6.041422009 -0.455936493 0)
(-5.7616131 -0.5563652792 0)
(-5.392253126 -0.6471338161 0)
(-4.939283901 -0.7265786373 0)
(-4.411535732 -0.7930101661 0)
(-3.820431057 -0.8449426379 0)
(-3.179589726 -0.8812364093 0)
(-2.504221952 -0.9012604697 0)
(-1.80986791 -0.9052388938 0)
(-1.106914195 -0.894430956 0)
(-0.4025206785 -0.8685437093 0)
(0.2923647649 -0.825428486 0)
(0.9639255627 -0.7646185244 0)
(1.597845535 -0.6871775961 0)
(2.18099831 -0.5953743717 0)
(2.702727052 -0.4923934104 0)
(3.155485042 -0.3820231411 0)
(3.534961969 -0.2683826629 0)
(3.839673218 -0.1554879863 0)
(4.068991971 -0.04635194833 0)
(4.219782229 0.05861554323 0)
(4.297856761 0.1646344855 0)
(4.312748277 0.2745483449 0)
(4.259940495 0.383638669 0)
(4.131942989 0.4892568002 0)
(3.927104214 0.5891672828 0)
(3.647731233 0.6810627485 0)
(3.299428581 0.7627003318 0)
(2.890532486 0.832116305 0)
(2.431385584 0.8878432492 0)
(1.933435273 0.9291789649 0)
(1.408180592 0.956300295 0)
(0.86609376 0.970241162 0)
(0.3152999856 0.9725872509 0)
(-0.2399728199 0.964673825 0)
(-0.7957244213 0.9457661838 0)
(-1.345175749 0.9158143208 0)
(-1.880694051 0.8755467306 0)
(-2.394684081 0.8262796287 0)
(-2.880240048 0.7696296276 0)
(-3.331547257 0.707265005 0)
(-3.74409471 0.6408403834 0)
(-4.11474833 0.5719696444 0)
(-4.441715803 0.5021423503 0)
(-4.724454594 0.4327144052 0)
(-4.963521527 0.364893408 0)
(-5.160385075 0.299734306 0)
(-5.317251979 0.2380812033 0)
(-5.436661785 0.1802274764 0)
(-5.519879021 0.1251948122 0)
(-5.568136747 0.07000602925 0)
(-5.582713443 0.0140173634 0)
(-5.561894858 -0.04101339057 0)
(-5.502006622 -0.09486041293 0)
(-5.399468916 -0.1477823279 0)
(-5.251666047 -0.1998364887 0)
(-5.05727413 -0.2507391061 0)
(-4.816167478 -0.2999546466 0)
(-4.529344844 -0.3468108036 0)
(-4.198896251 -0.3905759027 0)
(-3.827959361 -0.4305171464 0)
(-3.420637812 -0.4659051567 0)
(-2.981901386 -0.49609132 0)
(-2.517450072 -0.5205691823 0)
(-2.033528464 -0.5389701376 0)
(-1.536670751 -0.5511383359 0)
(-1.033124017 -0.5572976112 0)
(-0.5274996919 -0.5579599536 0)
(-0.0226173807 -0.5530727093 0)
(0.4774557187 -0.5411337116 0)
(0.9663433966 -0.5212685034 0)
(1.436941468 -0.4932163856 0)
(1.882103092 -0.4572932776 0)
(2.295238029 -0.41426019 0)
(2.6707979 -0.3652551435 0)
(3.004599748 -0.3116673002 0)
(3.293981272 -0.2549755323 0)
(3.537831245 -0.1966632212 0)
(3.736496945 -0.1381558677 0)
(3.891577515 -0.08079549563 0)
(4.005429673 -0.0256682934 0)
(4.079654554 0.02749218353 0)
(4.116802675 0.08241870164 0)
(4.11786533 0.1403334897 0)
(4.078666422 0.1996885631 0)
(3.994446999 0.259630451 0)
(3.862337692 0.3192935948 0)
(3.681150351 0.3776161872 0)
(3.451359601 0.433371652 0)
(3.175075697 0.4853015424 0)
(2.855937162 0.5322347675 0)
(2.498909123 0.573167248 0)
(2.109989725 0.6073103029 0)
(1.695830742 0.6342454079 0)
(1.263241545 0.6540189404 0)
(0.8186173251 0.6671131396 0)
(0.3672596405 0.6744583721 0)
(-0.08746885082 0.6770356015 0)
(-0.5436085996 0.6750313347 0)
(-0.9982389283 0.6677421133 0)
(-1.446997975 0.6549858193 0)
(-1.88523815 0.6369103371 0)
(-2.308383846 0.6139044873 0)
(-2.712211616 0.5865009423 0)
(-3.093031152 0.5552924278 0)
(-3.447793839 0.5208855421 0)
(-3.774158371 0.4839122622 0)
(-4.070510471 0.4450085402 0)
(-4.335945393 0.4047891799 0)
(-4.570225676 0.3638444637 0)
(-4.773714624 0.3227274319 0)
(-4.947292924 0.2819429918 0)
(-5.092262571 0.2419484553 0)
(-5.210257199 0.2031731333 0)
(-5.303208705 0.165996216 0)
(-5.372572569 0.1302735869 0)
(-5.418964238 0.0941882279 0)
(-5.4423864 0.0563497548 0)
(-5.441095565 0.01767268413 0)
(-5.412096997 -0.02147704257 0)
(-5.352464089 -0.06117530533 0)
(-5.259600489 -0.1014511133 0)
(-5.13157644 -0.1421797263 0)
(-4.967167097 -0.1830974961 0)
(-4.76582652 -0.2238157133 0)
(-4.527676148 -0.2638317297 0)
(-4.253506451 -0.3025587377 0)
(-3.944769937 -0.3393689337 0)
(-3.603553922 -0.3736447669 0)
(-3.232523603 -0.4047709885 0)
(-2.834864482 -0.4321794708 0)
(-2.414219125 -0.4554158913 0)
(-1.97460313 -0.4741408321 0)
(-1.52031315 -0.4881638451 0)
(-1.055774399 -0.4974944058 0)