/*--------------------------------*- C++ -*----------------------------------*\
| =========                 |                                                 |
| \\      /  F ield         | OpenFOAM: The Open Source CFD Toolbox           |
|  \\    /   O peration     | Version:  2312                                  |
|   \\  /    A nd           | Website:  www.openfoam.com                      |
|    \\/     M anipulation  |                                                 |
\*---------------------------------------------------------------------------*/
FoamFile
{
    version     2.0;
    format      ascii;
    arch        "LSB;label=32;scalar=64";
    class       volScalarField;
    location    "2000";
    object      p;
}
// * * * * * * * * * * * * * * * * * * * * * * * * * * * * * * * * * * * * * //

dimensions      [0 2 -2 0 0 0 0];

internalField   nonuniform List<scalar> 
79626
(
-0.4333258461
-0.4318884671
-0.4258595693
-0.4110130587
-0.3833869625
-0.3444257884
-0.2960855796
-0.2424693928
-0.1899742801
-0.1443997669
-0.1088783586
-0.08430179487
-0.06933512008
-0.0630243722
-0.06364906583
-0.06963177981
-0.07942903241
-0.09147919857
-0.104776218
-0.118720661
-0.1328012321
-0.146545633
-0.159565635
-0.1714692779
-0.1819952335
-0.1908719606
-0.1980384985
-0.2033772927
-0.2069219112
-0.2088510715
-0.2094028082
-0.2087917594
-0.2073483435
-0.2053640305
-0.2030226612
-0.2004888866
-0.1979527201
-0.1956126454
-0.1936592824
-0.1922572969
-0.1915488494
-0.1916282802
-0.1925615686
-0.1943712116
-0.1970620223
-0.2005934888
-0.2049345644
-0.2100387712
-0.2158369637
-0.2222503687
-0.2292075933
-0.2366138912
-0.2443761731
-0.2523609821
-0.2604678701
-0.2686194819
-0.2767096237
-0.2846211067
-0.2922343888
-0.2994318565
-0.3061017369
-0.3121418471
-0.3174630751
-0.3219924154
-0.3256753125
-0.3284769109
-0.3303813908
-0.3313818902
-0.3314839962
-0.3307090089
-0.3290956157
-0.3266997371
-0.3235922868
-0.3198555505
-0.3155790573
-0.310855991
-0.3057816764
-0.3004555987
-0.2949845978
-0.2894582419
-0.2839557214
-0.2785682244
-0.2733932695
-0.2685280517
-0.2640646611
-0.2600862404
-0.2566640145
-0.2538553758
-0.2517032093
-0.2502365233
-0.2494721921
-0.249418308
-0.2500785724
-0.2514494906
-0.2535185998
-0.2562638733
-0.2596540017
-0.2636494131
-0.2682037731
-0.2732657041
-0.2787805489
-0.2846920699
-0.2909440217
-0.2974815363
-0.3042521287
-0.3112057265
-0.318292772
-0.3254613024
-0.3326694728
-0.3398776569
-0.3470366352
-0.3540916673
-0.360984831
-0.3676563434
-0.3740457814
-0.3800933876
-0.3857414465
-0.3909356539
-0.3956264066
-0.3997699714
-0.4033294945
-0.4062758028
-0.4085879052
-0.4102530092
-0.4112657585
-0.4116257959
-0.4113370696
-0.4104104297
-0.4088651292
-0.4067293733
-0.4040400392
-0.4008416987
-0.397185125
-0.3931254754
-0.3887203259
-0.3840276845
-0.3791041339
-0.3740036428
-0.3687787557
-0.3634853479
-0.358169763
-0.3528788706
-0.347667995
-0.3425972889
-0.3377293046
-0.3331269015
-0.3288512366
-0.3249597814
-0.3215044964
-0.3185303351
-0.3160742001
-0.3141644617
-0.3128211347
-0.3120567644
-0.3118779802
-0.3122878074
-0.3132861852
-0.3148682417
-0.3170234638
-0.319735469
-0.3229822189
-0.3267365518
-0.3309669286
-0.3356383038
-0.3407130563
-0.3461519255
-0.3519149069
-0.3579620759
-0.3642543223
-0.3707540041
-0.3774255399
-0.384235789
-0.3911532523
-0.3981439182
-0.4051769349
-0.4122252797
-0.419255462
-0.4262287439
-0.4331029869
-0.4398335103
-0.4463738285
-0.4526764504
-0.458693713
-0.4643786147
-0.4696856438
-0.4745715965
-0.4789963514
-0.4829235664
-0.4863212835
-0.4891624371
-0.4914252526
-0.4930934787
-0.4941562893
-0.4946075476
-0.4944443162
-0.4936678768
-0.492285771
-0.4903131203
-0.4877732035
-0.4846973366
-0.4811241547
-0.4770984393
-0.4726696433
-0.4678902566
-0.462814137
-0.4574949013
-0.4519844408
-0.4463317246
-0.4405828807
-0.43478461
-0.4289768249
-0.4232015839
-0.4175084283
-0.4119513935
-0.4065872296
-0.4014737449
-0.3966681657
-0.3922254964
-0.3881969083
-0.384628221
-0.3815586187
-0.3790197626
-0.3770354271
-0.3756217245
-0.3747879299
-0.3745378952
-0.3748719544
-0.3757881838
-0.3772809268
-0.379339953
-0.3819500974
-0.3850912751
-0.3887387686
-0.3928637084
-0.3974336888
-0.4024134762
-0.4077657709
-0.4134519887
-0.4194330339
-0.4256700361
-0.4321250297
-0.438761559
-0.445545199
-0.452444002
-0.4594288441
-0.4664733074
-0.4735518724
-0.4806424251
-0.4877231645
-0.494767127
-0.501743866
-0.5086202837
-0.5153610231
-0.5219288477
-0.5282851084
-0.5343903199
-0.5402048108
-0.5456893788
-0.550805922
-0.5555180477
-0.5597916724
-0.5635956117
-0.5669021368
-0.5696874593
-0.5719321098
-0.5736211862
-0.5747444176
-0.5752958879
-0.5752731163
-0.5746760297
-0.5735082417
-0.5717784917
-0.5695015992
-0.5666989057
-0.5633982143
-0.5596332914
-0.5554430204
-0.5508703066
-0.5459608321
-0.5407617498
-0.5353203913
-0.529683042
-0.523893805
-0.5179935963
-0.51201998
-0.5060097943
-0.4999954582
-0.494012482
-0.4881026227
-0.4823119385
-0.4766896672
-0.4712870181
-0.4661558711
-0.4613473607
-0.4569104526
-0.452890633
-0.4493287575
-0.4462601069
-0.4437137196
-0.4417120865
-0.4402713009
-0.4394017347
-0.4391092658
-0.4393969284
-0.440265799
-0.4417135963
-0.4437337712
-0.4463150403
-0.4494412793
-0.4530916896
-0.4572411598
-0.4618607598
-0.4669183226
-0.4723790849
-0.4782063649
-0.4843622619
-0.4908083614
-0.4975064267
-0.5044190588
-0.5115103034
-0.5187461931
-0.5260952288
-0.533528807
-0.5410212796
-0.5485480874
-0.5560877896
-0.5636182972
-0.5711123941
-0.5785393041
-0.5858655007
-0.5930551537
-0.600070541
-0.606872503
-0.6134209146
-0.6196752205
-0.6255950563
-0.6311409306
-0.6362749281
-0.6409613875
-0.6451675092
-0.6488638695
-0.6520248434
-0.65462894
-0.6566590476
-0.6581025733
-0.6589514115
-0.6592015308
-0.6588519332
-0.6579040356
-0.6563632445
-0.6542402829
-0.6515520367
-0.6483218902
-0.6445795682
-0.6403605624
-0.6357052481
-0.6306577935
-0.6252649479
-0.6195747852
-0.6136354623
-0.60749404
-0.6011953947
-0.5947812199
-0.588289229
-0.5817540453
-0.5752073185
-0.5686803673
-0.562210867
-0.5558411506
-0.5496171937
-0.5435877081
-0.5378031472
-0.5323146347
-0.5271727727
-0.522426311
-0.5181207817
-0.514297223
-0.5109910991
-0.5082315335
-0.5060409649
-0.504435295
-0.5034245438
-0.5030140106
-0.5032059272
-0.5040005339
-0.5053950165
-0.5073826021
-0.5099521256
-0.5130879371
-0.5167700403
-0.5209743828
-0.5256732495
-0.5308357383
-0.5364283068
-0.542415377
-0.5487599818
-0.5554244313
-0.5623709751
-0.5695624347
-0.5769627867
-0.5845376802
-0.5922548846
-0.6000846859
-0.6080002905
-0.6159781135
-0.6239960087
-0.6320340552
-0.6400718267
-0.648084115
-0.6560420059
-0.6639135162
-0.6716639191
-0.6792560299
-0.6866506123
-0.6938069206
-0.7006832956
-0.7072377758
-0.7134287202
-0.7192154301
-0.7245587539
-0.7294216789
-0.733769915
-0.7375724555
-0.7408020785
-0.7434357525
-0.7454549221
-0.7468456595
-0.7475986251
-0.7477086334
-0.7471735389
-0.74599361
-0.7441730541
-0.7417214737
-0.7386548655
-0.7349961166
-0.7307749863
-0.726027635
-0.7207957871
-0.7151256277
-0.7090665257
-0.7026696734
-0.6959867199
-0.6890684668
-0.6819636742
-0.6747179827
-0.6673729258
-0.6599655138
-0.6525302277
-0.6450991785
-0.6377100049
-0.63040692
-0.6232389635
-0.6162589768
-0.609522436
-0.6030860939
-0.5970065582
-0.5913388694
-0.5861350933
-0.5814429895
-0.5773048502
-0.5737565892
-0.5708271385
-0.5685382334
-0.5669046843
-0.5659352022
-0.5656338444
-0.5660017862
-0.5670377954
-0.5687368105
-0.5710891674
-0.5740802801
-0.5776906406
-0.5818960338
-0.5866679002
-0.5919738158
-0.597778066
-0.6040422912
-0.6107261803
-0.6177881867
-0.6251862468
-0.6328784798
-0.6408238498
-0.6489827724
-0.6573176511
-0.665793335
-0.6743775035
-0.6830410147
-0.6917582476
-0.7005066816
-0.7092664583
-0.718017338
-0.7267342103
-0.7353883262
-0.743947945
-0.7523786879
-0.7606437987
-0.7687044079
-0.7765198955
-0.7840483745
-0.791247253
-0.7980738385
-0.8044859877
-0.8104427962
-0.8159052928
-0.8208370901
-0.825204952
-0.8289792673
-0.8321344263
-0.8346491039
-0.8365064447
-0.8376941397
-0.838204336
-0.8380331526
-0.8371795555
-0.8356449702
-0.83343491
-0.8305603811
-0.8270388192
-0.8228945219
-0.8181585888
-0.812868441
-0.8070670107
-0.8008016925
-0.7941231368
-0.787083962
-0.7797374487
-0.7721362727
-0.7643313214
-0.7563706124
-0.7482982904
-0.7401536985
-0.7319719814
-0.7237852524
-0.7156284973
-0.7075442722
-0.6995804723
-0.6917894512
-0.6842271539
-0.6769520677
-0.6700239237
-0.6635022308
-0.6574447413
-0.6519059117
-0.6469354191
-0.6425768354
-0.6388666016
-0.6358334348
-0.6334982632
-0.6318747329
-0.6309702861
-0.6307878772
-0.6313276553
-0.6325868456
-0.6345583542
-0.6372300951
-0.640584743
-0.6445997893
-0.6492478258
-0.6544970031
-0.660311612
-0.6666527452
-0.6734790052
-0.6807472332
-0.6884132442
-0.6964325478
-0.704761038
-0.7133556344
-0.722174858
-0.7311793344
-0.7403322143
-0.7495995182
-0.7589504311
-0.7683576141
-0.7777974191
-0.787249354
-0.7966937344
-0.8061061219
-0.8154577342
-0.8247163195
-0.8338465257
-0.8428102619
-0.8515670927
-0.8600746637
-0.8682891872
-0.8761660111
-0.8836602429
-0.8907273829
-0.8973239457
-0.903408074
-0.9089401545
-0.9138834378
-0.9182046383
-0.9218744687
-0.9248680665
-0.9271652884
-0.928750878
-0.9296145035
-0.9297505588
-0.9291573858
-0.9278360571
-0.9257905149
-0.9230293806
-0.9195672459
-0.9154255046
-0.9106326798
-0.9052242601
-0.8992421115
-0.8927335637
-0.8857502637
-0.8783468857
-0.8705797745
-0.8625055933
-0.8541800342
-0.8456566361
-0.8369857238
-0.8282134446
-0.8193808808
-0.8105238666
-0.8016748271
-0.792869991
-0.784153611
-0.7755752625
-0.7671888448
-0.7590515447
-0.7512227302
-0.7437626981
-0.7367312773
-0.7301863646
-0.7241824949
-0.7187695214
-0.7139914597
-0.7098855491
-0.7064816143
-0.703801836
-0.7018610334
-0.700667521
-0.7002245958
-0.7005324603
-0.7015888191
-0.703387472
-0.7059174472
-0.7091626391
-0.7131018174
-0.7177088905
-0.7229533313
-0.7288007003
-0.7352132301
-0.7421504545
-0.7495698684
-0.7574276119
-0.7656791606
-0.7742800044
-0.7831862965
-0.7923554546
-0.8017467
-0.8113215253
-0.8210440839
-0.8308815079
-0.8408041921
-0.8507861428
-0.8608052368
-0.8708422609
-0.880878165
-0.8908891885
-0.9008474612
-0.9107217824
-0.9204778388
-0.9300784285
-0.9394837535
-0.9486517938
-0.9575387316
-0.9660994462
-0.9742880798
-0.9820586757
-0.9893658674
-0.9961655846
-1.002415742
-1.008076882
-1.013112756
-1.017490834
-1.021182724
-1.024164513
-1.026417007
-1.027925878
-1.028681662
-1.028679463
-1.027917898
-1.026398194
-1.024125194
-1.021109161
-1.017367045
-1.012923231
-1.007809749
-1.002065972
-0.9957379115
-0.9888771983
-0.9815398471
-0.973784891
-0.965672959
-0.9572648605
-0.9486202355
-0.9397963168
-0.9308468271
-0.9218210135
-0.9127628314
-0.9037096733
-0.8946951365
-0.8857586536
-0.8769481657
-0.8683173391
-0.8599248041
-0.8518331518
-0.8441077907
-0.8368156443
-0.8300236822
-0.8237973209
-0.8181987692
-0.8132854364
-0.809108531
-0.8057119581
-0.8031316148
-0.8013951846
-0.8005224993
-0.8005264845
-0.8014147124
-0.8031915038
-0.8058588269
-0.8094149887
-0.8138537226
-0.8191638404
-0.8253292805
-0.8323294091
-0.8401394893
-0.8487312727
-0.8580736872
-0.8681336109
-0.8788767155
-0.8902683645
-0.9022745555
-0.9148629111
-0.9280037372
-0.9416711849
-0.9558445704
-0.9705099169
-0.9856618098
-1.001305884
-1.017463556
-1.034181604
-1.05153409
-1.069548477
-1.08827662
-1.10784234
-1.128342426
-1.149864259
-1.172485031
-1.1962868
-1.221274248
-1.247397311
-1.274559674
-1.302536784
-1.330964963
-1.359354433
-1.387100959
-1.413524171
-1.437948364
-1.459841863
-1.478886911
-1.494802767
-1.507229041
-1.516112237
-1.520338928
-1.525122107
-1.529367413
-1.535435642
-1.544031338
-1.553822952
-1.564822444
-0.4606282885
-0.4596124186
-0.4503070155
-0.4268170753
-0.3884248688
-0.3390229134
-0.2835299097
-0.2272412842
-0.1755878927
-0.1327679264
-0.1003738936
-0.07858137176
-0.06606926922
-0.06136584693
-0.06318223763
-0.06999183512
-0.08034414819
-0.09279746821
-0.106336103
-0.1203877133
-0.1345227687
-0.1483459308
-0.1614340953
-0.1733443345
-0.183796342
-0.1925438985
-0.1995295616
-0.2046474656
-0.2079400357
-0.2096107943
-0.2098522519
-0.2089680999
-0.2072909169
-0.2050719047
-0.2024878056
-0.1997329603
-0.197015327
-0.1945391589
-0.1924891497
-0.1910383433
-0.190321087
-0.1904311013
-0.1914191686
-0.1932941653
-0.196050031
-0.1996581552
-0.2040991425
-0.209315809
-0.2152271732
-0.221749852
-0.2288215199
-0.2363419567
-0.2442196983
-0.2523207004
-0.2605428177
-0.2687997153
-0.2769884157
-0.2849935284
-0.2926945724
-0.2999722636
-0.3067130696
-0.3128131499
-0.3181819439
-0.3227453161
-0.3264481051
-0.3292557049
-0.3311533503
-0.3321334579
-0.3321998518
-0.3313734241
-0.3296939315
-0.3272194825
-0.3240239443
-0.3201931336
-0.315820538
-0.311003169
-0.3058383653
-0.3004248427
-0.2948681077
-0.2892515987
-0.2836560842
-0.2781768443
-0.2729141021
-0.2679673918
-0.2634309473
-0.2593897375
-0.2559163213
-0.2530687661
-0.250889877
-0.2494078389
-0.2486382348
-0.248588117
-0.2492620748
-0.2506567692
-0.2527591628
-0.2555460716
-0.2589847117
-0.263033936
-0.2676458513
-0.2727675926
-0.278343112
-0.2843148849
-0.2906254531
-0.2972187396
-0.3040411087
-0.3110422324
-0.3181750397
-0.3253924554
-0.3326507114
-0.3399060638
-0.3471102174
-0.3542098677
-0.3611474448
-0.3678628432
-0.3742950509
-0.3803836349
-0.3860701791
-0.3912996831
-0.3960218833
-0.4001924569
-0.4037740648
-0.4067371939
-0.4090607394
-0.4107321739
-0.41174663
-0.4121035782
-0.4118054745
-0.4108623611
-0.4092932722
-0.4071267238
-0.4044003392
-0.4011597563
-0.3974570147
-0.3933486337
-0.3888935743
-0.3841512443
-0.3791796979
-0.374034173
-0.3687666389
-0.3634282064
-0.3580640929
-0.3527228603
-0.3474606373
-0.3423383597
-0.3374195886
-0.3327683511
-0.3284469744
-0.3245139998
-0.321022299
-0.3180175064
-0.3155368871
-0.3136087838
-0.3122527712
-0.3114805673
-0.3112979655
-0.3117079309
-0.3127111733
-0.3143030558
-0.3164729564
-0.3192041511
-0.3224741229
-0.3262551637
-0.3305151606
-0.3352184879
-0.3403269476
-0.3458007138
-0.3515992364
-0.3576820719
-0.3640096145
-0.3705437103
-0.3772481393
-0.3840890063
-0.3910351046
-0.3980562653
-0.4051229485
-0.4122050271
-0.419268378
-0.4262750643
-0.4331833794
-0.4399486406
-0.4465241241
-0.4528619627
-0.458914013
-0.4646327236
-0.469972006
-0.4748880847
-0.4793402922
-0.4832917883
-0.4867101939
-0.4895681316
-0.49184366
-0.4935205717
-0.4945884279
-0.4950414491
-0.4948761835
-0.4940928202
-0.4926982673
-0.4907074368
-0.4881437876
-0.4850391346
-0.4814328466
-0.4773705952
-0.4729028106
-0.468082987
-0.4629659646
-0.4576063047
-0.4520568469
-0.4463674933
-0.440584201
-0.4347495567
-0.4289024402
-0.4230861007
-0.4173504374
-0.41174996
-0.4063420627
-0.4011853297
-0.3963378432
-0.3918555193
-0.3877904183
-0.3841891323
-0.3810914257
-0.3785292986
-0.3765265857
-0.3750991533
-0.374255713
-0.3739993761
-0.3743303062
-0.3752473483
-0.3767452966
-0.3788140137
-0.3814381705
-0.3845973461
-0.3882663765
-0.3924158716
-0.3970128593
-0.4020215192
-0.4074039674
-0.4131210586
-0.4191331733
-0.4254009682
-0.4318860654
-0.4385516613
-0.4453630334
-0.4522879303
-0.4592968728
-0.4663635777
-0.4734652044
-0.4805805564
-0.4876861944
-0.4947549179
-0.5017567536
-0.5086588948
-0.5154260262
-0.5220207683
-0.5284042213
-0.5345366143
-0.5403779773
-0.5458887999
-0.5510306559
-0.5557668127
-0.5600628451
-0.5638872441
-0.5672119897
-0.5700130488
-0.5722707664
-0.5739701338
-0.5751009215
-0.5756575327
-0.5756375999
-0.5750402913
-0.5738682947
-0.5721297575
-0.5698392517
-0.5670181956
-0.5636947431
-0.5599032244
-0.5556832365
-0.5510784868
-0.5461354923
-0.5409022234
-0.5354267767
-0.5297561378
-0.5239350792
-0.5180052028
-0.5120039558
-0.5059647131
-0.4999186208
-0.493901802
-0.4879562792
-0.4821285095
-0.4764682804
-0.471027504
-0.4658588491
-0.4610142356
-0.4565433834
-0.4524924719
-0.4489029533
-0.445810568
-0.4432446131
-0.4412275712
-0.4397752325
-0.4388973722
-0.4385991078
-0.4388832844
-0.4397516462
-0.44120235
-0.4432289925
-0.4458202232
-0.4489597094
-0.4526263548
-0.4567946979
-0.4614354306
-0.4665159957
-0.4720012366
-0.4778540836
-0.4840362599
-0.4905089953
-0.4972337273
-0.504172769
-0.5112899191
-0.5185509915
-0.525924244
-0.5333807238
-0.5408947538
-0.5484441638
-0.556008227
-0.5635634757
-0.5710825228
-0.5785349689
-0.5858874839
-0.5931042067
-0.6001472677
-0.6069772652
-0.6135537631
-0.6198358619
-0.6257828327
-0.6313548141
-0.6365135367
-0.6412230118
-0.6454501407
-0.6491652337
-0.6523424454
-0.6549601191
-0.6570010398
-0.6584525961
-0.6593068328
-0.6595601246
-0.6592115029
-0.6582615278
-0.6567148063
-0.6545815754
-0.6518785644
-0.6486293092
-0.6448639361
-0.6406185198
-0.635934137
-0.6308557196
-0.6254307948
-0.6197081856
-0.6137367356
-0.6075641094
-0.6012357093
-0.5947937255
-0.5882762264
-0.5817160022
-0.5751419745
-0.5685853276
-0.5620840669
-0.555680823
-0.5494219999
-0.5433568125
-0.5375362934
-0.5320122516
-0.5268360246
-0.5220570847
-0.5177216391
-0.5138713053
-0.5105419695
-0.5077629703
-0.5055567272
-0.5039388732
-0.5029189022
-0.5025013746
-0.5026882534
-0.5034803815
-0.5048754875
-0.5068670424
-0.5094439147
-0.5125903476
-0.5162861428
-0.5205069743
-0.5252247967
-0.5304083328
-0.5360236345
-0.5420347019
-0.5484041468
-0.5550938752
-0.5620657647
-0.5692823099
-0.5767072177
-0.5843059329
-0.5920460838
-0.5998978396
-0.607834197
-0.6158313762
-0.6238690964
-0.6319284848
-0.6399881833
-0.6480228585
-0.6560039989
-0.6638999169
-0.6716759383
-0.6792947426
-0.6867168747
-0.6939013153
-0.7008060751
-0.7073888278
-0.7136075609
-0.7194212044
-0.7247902375
-0.7296772889
-0.7340477377
-0.7378702917
-0.7411174993
-0.743766158
-0.7457976035
-0.7471978828
-0.7479577948
-0.7480725696
-0.7475401074
-0.7463598173
-0.7445350243
-0.7420747466
-0.7389947238
-0.7353179032
-0.7310743761
-0.7263008453
-0.7210397257
-0.7153379801
-0.7092457901
-0.7028151446
-0.6960984316
-0.6891471034
-0.6820104732
-0.6747346688
-0.6673616999
-0.6599281883
-0.6524653567
-0.6450039079
-0.6375817629
-0.6302433681
-0.6230381638
-0.6160195745
-0.6092437668
-0.6027682337
-0.5966503726
-0.5909460446
-0.5857081068
-0.5809850206
-0.5768196525
-0.5732483221
-0.570300144
-0.567996757
-0.5663525658
-0.5653755694
-0.5650690261
-0.5654340597
-0.5664701608
-0.5681726786
-0.5705320825
-0.573533732
-0.5771579421
-0.5813802348
-0.5861717262
-0.5914996214
-0.597327803
-0.6036174882
-0.6103279336
-0.6174171623
-0.6248426946
-0.6325622624
-0.640534486
-0.6487194965
-0.6570794847
-0.6655791653
-0.6741861488
-0.6828712297
-0.6916087074
-0.7003771966
-0.7091579469
-0.7179303543
-0.7266692717
-0.7353463025
-0.7439299405
-0.7523858767
-0.760677277
-0.7687650726
-0.7766083707
-0.7841649742
-0.7913919527
-0.7982462507
-0.8046853511
-0.8106679818
-0.8161548262
-0.8211091825
-0.8254975403
-0.82929006
-0.8324609576
-0.8349887941
-0.8368566625
-0.8380522817
-0.8385679936
-0.838400371
-0.837548383
-0.836012571
-0.8337976041
-0.8309139235
-0.8273787073
-0.8232162903
-0.8184580583
-0.8131419123
-0.8073114044
-0.80101464
-0.7943030254
-0.787229938
-0.7798493811
-0.7722146849
-0.7643773008
-0.7563857229
-0.7482845156
-0.7401132386
-0.731904898
-0.7236891152
-0.7155005796
-0.7073819735
-0.6993814986
-0.6915519392
-0.6839498353
-0.6766344129
-0.6696662253
-0.6631056376
-0.6570112625
-0.65143838
-0.6464373916
-0.6420524305
-0.6383202768
-0.6352697164
-0.6329214436
-0.6312885639
-0.6303776796
-0.6301910166
-0.6307288975
-0.6319892706
-0.6339653953
-0.6366452941
-0.6400115797
-0.6440415596
-0.6487075545
-0.6539773799
-0.6598149465
-0.6661809352
-0.6730335162
-0.6803290922
-0.6880230462
-0.6960704767
-0.7044269006
-0.7130489056
-0.721894739
-0.7309248216
-0.7401021787
-0.7493927845
-0.7587658306
-0.768193984
-0.7776541189
-0.7871269737
-0.796592898
-0.8060274089
-0.8154021085
-0.8246850129
-0.8338408443
-0.8428314486
-0.8516162205
-0.8601525465
-0.8683963167
-0.8763025218
-0.8838258932
-0.8909215454
-0.8975456048
-0.9036558335
-0.9092122573
-0.9141777989
-0.918518892
-0.9222060307
-0.925214203
-0.9275231819
-0.9291176924
-0.9299874855
-0.9301272699
-0.9295358452
-0.9282140426
-0.9261647921
-0.9233959374
-0.9199215876
-0.9157629719
-0.9109487451
-0.905514771
-0.899503475
-0.892962874
-0.8859453805
-0.878506467
-0.8707032669
-0.862593184
-0.8542325725
-0.8456755377
-0.8369728794
-0.8281711377
-0.8193114773
-0.8104276781
-0.8015496991
-0.7927132216
-0.7839625605
-0.7753477147
-0.7669230886
-0.758746459
-0.7508778826
-0.7433784287
-0.736308739
-0.7297275152
-0.7236900524
-0.7182468862
-0.7134425933
-0.7093147998
-0.7058934882
-0.7032007159
-0.7012508674
-0.7000515086
-0.6996050345
-0.6999114882
-0.7009692666
-0.702772606
-0.7053106798
-0.7085673282
-0.7125211372
-0.7171457479
-0.7224103102
-0.728280025
-0.7347167426
-0.7416795999
-0.7491256904
-0.7570107569
-0.7652898906
-0.7739182192
-0.782851565
-0.7920470581
-0.8014636885
-0.8110627859
-0.8208084199
-0.8306677222
-0.8406111474
-0.8506127402
-0.8606508725
-0.8707074118
-0.8807633758
-0.8907950203
-0.9007748938
-0.9106720775
-0.9204523625
-0.9300785045
-0.9395105665
-0.9487063158
-0.9576216671
-0.9662111796
-0.974428639
-0.9822277132
-0.9895626525
-0.9963890065
-1.002664323
-1.008348803
-1.013405895
-1.017802814
-1.021510976
-1.024506336
-1.026769626
-1.028286507
-1.029047638
-1.029048543
-1.028288135
-1.026767058
-1.024489141
-1.021463921
-1.01770793
-1.013245455
-1.008108705
-1.002337467
-0.9959783343
-0.9890836406
-0.9817101739
-0.9739177688
-0.9657678443
-0.9573219521
-0.9486403985
-0.9397809918
-0.9307979441
-0.9217408792
-0.9126535556
-0.9035712763
-0.8945255478
-0.8855550053
-0.8767074833
-0.8680371245
-0.8596031524
-0.8514688371
-0.8437003444
-0.836365426
-0.8295319186
-0.8232660933
-0.8176309554
-0.8126846066
-0.8084787951
-0.8050577613
-0.8024574873
-0.8007054504
-0.799820965
-0.7998161342
-0.8006975072
-0.8024690995
-0.8051335555
-0.8086897153
-0.8131315564
-0.8184479425
-0.8246227364
-0.8316351391
-0.8394601808
-0.848069325
-0.8574311649
-0.8675122099
-0.8782777462
-0.8896927508
-0.9017228522
-0.9143353379
-0.9275002303
-0.9411914701
-0.9553882726
-0.9700767555
-0.9852519857
-1.000920628
-1.017104195
-1.033842453
-1.051192107
-1.069197858
-1.087917994
-1.107455902
-1.127905446
-1.149355381
-1.171877864
-1.195544184
-1.220361233
-1.246278591
-1.273201393
-1.300926185
-1.329136195
-1.357406788
-1.385215523
-1.411944492
-1.436903231
-1.459404339
-1.478858667
-1.494665784
-1.506138852
-1.515468416
-1.520513083
-1.524632605
-1.528838097
-1.535821313
-1.546267089
-1.559443409
-1.574485762
-0.5391277944
-0.5337074218
-0.5080566327
-0.4600081357
-0.3957814626
-0.3253281521
-0.2571215345
-0.1962863692
-0.1465367322
-0.1090317516
-0.08288105211
-0.06676142401
-0.05901217695
-0.05790225922
-0.0621693963
-0.07063151291
-0.08214287394
-0.09530794313
-0.1094290461
-0.1240082995
-0.1386082317
-0.152750327
-0.1659547102
-0.1778196628
-0.1880685417
-0.1964648835
-0.202969109
-0.2075137484
-0.2101887015
-0.211211492
-0.2107894781
-0.2092918169
-0.2070232961
-0.2042119738
-0.2010745639
-0.1978407656
-0.1947313871
-0.1919622825
-0.1897266204
-0.1881834202
-0.1874496262
-0.187586311
-0.1886588948
-0.1906663085
-0.1935968382
-0.1974358413
-0.2021328933
-0.2076229189
-0.2138296043
-0.2206493432
-0.2280140617
-0.2358108767
-0.2439405495
-0.2522859186
-0.2607553719
-0.2692483332
-0.2776565544
-0.285864659
-0.2937518629
-0.3011968919
-0.3080834015
-0.3143046598
-0.3197675377
-0.3243959137
-0.3281335149
-0.3309460072
-0.3328210369
-0.3337509864
-0.333735541
-0.3327946463
-0.330969958
-0.3283236712
-0.3249353421
-0.3208975709
-0.3163111207
-0.3112801219
-0.3059080794
-0.3002957045
-0.2945355776
-0.2887094469
-0.2829093852
-0.277233818
-0.2717863542
-0.2666704847
-0.2619844512
-0.2578167652
-0.2542425693
-0.251321148
-0.2490949204
-0.2475901454
-0.2468194326
-0.246787109
-0.2474988815
-0.2489514703
-0.2511304029
-0.254010055
-0.2575547458
-0.2617203007
-0.2664558326
-0.2717056086
-0.2774109093
-0.2835117992
-0.2899487392
-0.2966639841
-0.3036027527
-0.3107141789
-0.3179513446
-0.3252703939
-0.332631238
-0.3399894881
-0.3472953185
-0.3544946903
-0.361529831
-0.3683401815
-0.3748638576
-0.3810392681
-0.3868066953
-0.3921098005
-0.3968970383
-0.4011229419
-0.4047492369
-0.4077457509
-0.4100911003
-0.4117730547
-0.412787629
-0.4131343871
-0.4128131478
-0.4118323495
-0.410210527
-0.4079767324
-0.4051699906
-0.4018379964
-0.3980352671
-0.3938209931
-0.3892567954
-0.38440457
-0.3793245566
-0.3740736453
-0.3687037727
-0.3632605527
-0.3577870628
-0.3523342923
-0.3469599307
-0.3417264931
-0.3366994302
-0.3319449477
-0.3275276356
-0.3235081792
-0.3199413092
-0.3168740561
-0.3143444308
-0.312380723
-0.3110016056
-0.3102171539
-0.3100313363
-0.3104465894
-0.3114648064
-0.3130816435
-0.3152861587
-0.3180609071
-0.321382419
-0.3252219137
-0.3295461531
-0.3343183701
-0.339499231
-0.3450477985
-0.3509224586
-0.3570817788
-0.3634852724
-0.3700940505
-0.3768713596
-0.383783049
-0.3907979513
-0.397887038
-0.4050232236
-0.4121770371
-0.4193139801
-0.4263955304
-0.4333796223
-0.4402212323
-0.4468731547
-0.4532868378
-0.4594132477
-0.4652037819
-0.4706112164
-0.4755906264
-0.4801002387
-0.4841022077
-0.4875633099
-0.4904555462
-0.4927566314
-0.4944503659
-0.4955268211
-0.4959809125
-0.4958085897
-0.4950080416
-0.4935849715
-0.4915538766
-0.4889385452
-0.4857717399
-0.4820942431
-0.4779534547
-0.4734017075
-0.468494437
-0.4632883375
-0.4578396223
-0.4522024725
-0.4464276199
-0.440560743
-0.4346410333
-0.4287054312
-0.4227977869
-0.4169687881
-0.4112739641
-0.4057719704
-0.4005228833
-0.3955864773
-0.3910204701
-0.3868786919
-0.3832093098
-0.3800533174
-0.377443474
-0.3754037968
-0.3739496897
-0.3730887788
-0.3728227263
-0.3731510899
-0.3740738473
-0.3755864928
-0.3776789596
-0.380335534
-0.3835351039
-0.387251605
-0.3914546026
-0.3961099869
-0.4011807556
-0.4066278475
-0.412410986
-0.4184895015
-0.4248231128
-0.4313726467
-0.4381006772
-0.444972062
-0.4519543791
-0.4590183125
-0.4661381107
-0.4732917835
-0.4804594015
-0.487618357
-0.4947417752
-0.5017995874
-0.5087588625
-0.5155840916
-0.5222375695
-0.5286799447
-0.5348709092
-0.5407699074
-0.5463368084
-0.5515325322
-0.5563196656
-0.5606630968
-0.5645306563
-0.5678937242
-0.5707277606
-0.5730127235
-0.5747333588
-0.5758794008
-0.5764456141
-0.5764298503
-0.5758301242
-0.574647385
-0.5728886532
-0.5705680343
-0.5677071027
-0.5643346944
-0.5604862324
-0.5562027006
-0.55152937
-0.5465143805
-0.5412072752
-0.5356575721
-0.5299134442
-0.5240205358
-0.5180208367
-0.5119512685
-0.5058425633
-0.4997241862
-0.4936320604
-0.4876083983
-0.4817002926
-0.4759585219
-0.4704363024
-0.4651877987
-0.4602665035
-0.4557236933
-0.4516069995
-0.4479591395
-0.4448168343
-0.4422099551
-0.4401610345
-0.4386853214
-0.4377914826
-0.4374832035
-0.4377627596
-0.4386328688
-0.440092372
-0.4421350557
-0.4447493982
-0.4479186459
-0.4516211146
-0.4558306478
-0.4605171796
-0.4656473629
-0.4711852414
-0.4770929517
-0.4833314465
-0.4898612286
-0.496643075
-0.5036387305
-0.5108115446
-0.5181270305
-0.5255533384
-0.5330616867
-0.540626861
-0.5482273765
-0.5558434572
-0.5634523477
-0.5710269309
-0.5785366489
-0.5859479328
-0.5932246116
-0.6003284123
-0.6072194337
-0.6138566506
-0.6201985058
-0.6262035711
-0.6318312705
-0.6370426345
-0.6418010121
-0.646072694
-0.6498274488
-0.6530389805
-0.6556852946
-0.6577489625
-0.6592172956
-0.6600824853
-0.6603414554
-0.6599933439
-0.6590373284
-0.6574765365
-0.655320296
-0.6525850651
-0.6492946974
-0.6454801109
-0.6411785205
-0.6364323731
-0.6312880927
-0.6257947197
-0.6200025186
-0.6139616153
-0.6077207199
-0.6013259711
-0.5948198766
-0.5882401257
-0.5816178962
-0.5749799057
-0.5683565271
-0.5617853545
-0.5553092667
-0.5489753038
-0.5428335968
-0.5369363338
-0.5313366722
-0.5260874038
-0.5212394658
-0.5168404497
-0.5129331763
-0.5095544479
-0.5067341354
-0.5044947245
-0.5028513943
-0.5018126691
-0.501381757
-0.5015599769
-0.5023490417
-0.5037475528
-0.5057493604
-0.5083433587
-0.5115135713
-0.5152393995
-0.519495974
-0.524254586
-0.5294832006
-0.5351470443
-0.541209257
-0.5476315882
-0.5543751144
-0.5614009475
-0.5686709103
-0.5761481597
-0.5837977421
-0.5915870691
-0.5994863116
-0.6074687513
-0.6155111862
-0.6235940688
-0.6316995138
-0.639807029
-0.6478918541
-0.6559256055
-0.6638765698
-0.6717099005
-0.6793879429
-0.6868707661
-0.694116768
-0.7010832945
-0.7077272981
-0.714006016
-0.7198776227
-0.7253018518
-0.7302406147
-0.7346586278
-0.7385240189
-0.7418088642
-0.744489612
-0.746547374
-0.7479681008
-0.7487427061
-0.7488669566
-0.7483388479
-0.7471563903
-0.7453212679
-0.7428414072
-0.7397320943
-0.7360164323
-0.7317251828
-0.7268961205
-0.721573015
-0.7158043544
-0.7096419054
-0.703139196
-0.6963500074
-0.6893269505
-0.682120185
-0.6747762859
-0.66733712
-0.6598383128
-0.6523087781
-0.6447777466
-0.6372824125
-0.6298670705
-0.6225816229
-0.6154804126
-0.6086208483
-0.6020618901
-0.5958625499
-0.5900803619
-0.5847698101
-0.5799808333
-0.5757575309
-0.5721371113
-0.5691491234
-0.5668150821
-0.5651486544
-0.5641565279
-0.5638404643
-0.5642012922
-0.5652395938
-0.5669513546
-0.5693272212
-0.5723524124
-0.5760068835
-0.5802656372
-0.585099148
-0.5904738845
-0.5963529214
-0.6026966221
-0.6094633648
-0.616610294
-0.6240940782
-0.6318716536
-0.6399009347
-0.6481414708
-0.6565550307
-0.6651061013
-0.6737622967
-0.6824947083
-0.6912783024
-0.7000924382
-0.708919269
-0.7177390302
-0.7265273525
-0.7352560947
-0.7438937925
-0.7524060188
-0.7607556648
-0.7689032431
-0.7768073219
-0.7844250757
-0.7917128865
-0.798626974
-0.8051240819
-0.8111622093
-0.8167013451
-0.8217041493
-0.826136549
-0.8299682369
-0.8331730766
-0.835729402
-0.8376201948
-0.838833174
-0.8393608917
-0.8392005436
-0.8383511239
-0.8368116993
-0.834585363
-0.8316814985
-0.828116829
-0.8239158011
-0.819110382
-0.8137394187
-0.8078476782
-0.8014846552
-0.7947032302
-0.7875582487
-0.7801050854
-0.7723982558
-0.7644901256
-0.7564297426
-0.7482617224
-0.7400249036
-0.7317505211
-0.7234664087
-0.7152063108
-0.707012196
-0.6989323256
-0.6910200967
-0.6833330884
-0.6759319007
-0.6688786951
-0.6622355744
-0.6560629169
-0.6504176898
-0.64535179
-0.6409105391
-0.6371314869