/*--------------------------------*- C++ -*----------------------------------*\
| =========                 |                                                 |
| \\      /  F ield         | OpenFOAM: The Open Source CFD Toolbox           |
|  \\    /   O peration     | Version:  2312                                  |
|   \\  /    A nd           | Website:  www.openfoam.com                      |
|    \\/     M anipulation  |                                                 |
\*---------------------------------------------------------------------------*/
FoamFile
{
    version     2.0;
    format      ascii;
    arch        "LSB;label=32;scalar=64";
    class       volVectorField;
    location    "2000";
    object      U;
}
// * * * * * * * * * * * * * * * * * * * * * * * * * * * * * * * * * * * * * //

dimensions      [0 1 -1 0 0 0 0];

internalField   nonuniform List<vector> 
79626
(
(-0.004523500965 -0.02475547478 0)
(-0.008843762029 -0.01711059225 0)
(-0.007588479093 -0.005243083858 0)
(-0.01740204099 -0.005402507841 0)
(-0.01072080998 -0.001955450546 0)
(0.00328823705 0.0009773994834 0)
(0.002244208146 0.00404614057 0)
(0.004061856244 -0.001341128978 0)
(0.001442480619 -0.002537927691 0)
(0.0008155055958 -0.00114111087 0)
(-0.0003553040952 -0.00341677864 0)
(-0.0089495358 -0.001529992933 0)
(-0.001261093461 -0.0002038152706 0)
(0.00154927075 0.0003030512035 0)
(0.0008578365776 0.0002172753217 0)
(0.0004014121495 -0.001090525117 0)
(-0.002141820857 3.483542737e-05 0)
(-0.0006897598695 0.0006771151092 0)
(-0.0002638825065 0.0001770209843 0)
(-0.0006672459749 -0.0001803288824 0)
(-2.496816637e-05 -0.0005547419279 0)
(-0.001118919864 -0.001711744831 0)
(-0.003945313599 -0.003253926326 0)
(0.00174167491 -0.001828269595 0)
(0.0006398171845 -0.001113822699 0)
(-0.002380332958 -0.0008674222435 0)
(-0.002804257279 0.0002403075766 0)
(0.003075451765 -0.0001758030605 0)
(0.002714173943 -0.0005994999618 0)
(6.924048911e-05 -0.0004904559947 0)
(-0.0004648942816 -0.0002207668019 0)
(0.0006730841229 -6.761910768e-05 0)
(0.001036479867 -0.0001867370409 0)
(0.00163374891 2.538959504e-06 0)
(0.001650722509 -0.0001004939027 0)
(0.00181302632 0.0005736251752 0)
(0.002804442389 0.001444764724 0)
(0.002272665839 0.0007388785438 0)
(0.00122037507 1.239671443e-05 0)
(0.0009643004854 -0.0001347888024 0)
(0.001896115035 0.0006137242766 0)
(0.004267975792 0.002011328721 0)
(0.001588928349 0.001980317736 0)
(0.001514152464 0.0008071702855 0)
(0.001685616836 -0.0001570895311 0)
(0.0006369892174 -0.0001751371642 0)
(0.0009818225026 4.731417301e-05 0)
(0.00218509648 0.0001203612027 0)
(0.0007299241378 -0.0002486515559 0)
(0.0001738661497 0.0001709991562 0)
(0.0004198345032 4.404508666e-05 0)
(-0.0001987372759 8.061987351e-05 0)
(-0.0002423913472 0.0001344204075 0)
(-0.0008274789521 0.0001827083849 0)
(-0.001076598263 0.0001834914182 0)
(-0.001240685435 0.0001587901998 0)
(-0.001439544309 0.0001396324835 0)
(-0.001635891457 0.00012342097 0)
(-0.001818128887 0.0001080392569 0)
(-0.001980077517 9.250236985e-05 0)
(-0.002117974301 7.647427673e-05 0)
(-0.002229104975 5.98449309e-05 0)
(-0.002311363583 4.246759071e-05 0)
(-0.002363203642 2.429448647e-05 0)
(-0.002383989284 5.789176749e-06 0)
(-0.002377073789 -1.215427633e-05 0)
(-0.002343619183 -2.823312133e-05 0)
(-0.002291499441 -5.008688362e-05 0)
(-0.002211580964 -7.338841965e-05 0)
(-0.002097123712 -9.716815655e-05 0)
(-0.001947865297 -0.0001205736443 0)
(-0.001765059812 -0.000142734021 0)
(-0.001550656113 -0.0001627705153 0)
(-0.001306290714 -0.0001797011282 0)
(-0.001029797234 -0.0001925754279 0)
(-0.0007077881931 -0.0002021189266 0)
(-0.0003092250809 -0.0002144802226 0)
(0.0001979319488 -0.0002277588042 0)
(0.0006779034418 -0.0002448190546 0)
(0.0009981117294 -0.0002295337956 0)
(0.001280454719 -0.0002046412685 0)
(0.001551476876 -0.0001833515287 0)
(0.001796382909 -0.0001623441042 0)
(0.00200990851 -0.0001411053497 0)
(0.00218859221 -0.0001194969216 0)
(0.002330701843 -9.763657644e-05 0)
(0.002436189745 -7.58883993e-05 0)
(0.002506781866 -5.480604231e-05 0)
(0.002545965728 -3.505111994e-05 0)
(0.002558641546 -1.722291968e-05 0)
(0.002551887381 -9.922593101e-07 0)
(0.002530154858 1.524870105e-05 0)
(0.002491843477 3.355548884e-05 0)
(0.002434203271 5.250238409e-05 0)
(0.002354838203 7.083675165e-05 0)
(0.002252900362 8.784999434e-05 0)
(0.002128923893 0.0001032545931 0)
(0.001984177843 0.000116967108 0)
(0.001820284733 0.0001289783603 0)
(0.0016390418 0.0001393032461 0)
(0.001442333959 0.0001479623295 0)
(0.001232059592 0.000154932293 0)
(0.001009785284 0.0001599994097 0)
(0.0007750463862 0.0001626676675 0)
(0.0005201083994 0.0001633571472 0)
(0.0002226997988 0.000168661457 0)
(-0.0001390913585 0.0001915256954 0)
(-0.0004699590355 0.0002102110085 0)
(-0.0007046167294 0.0001836797717 0)
(-0.0009508867966 0.0001570855815 0)
(-0.001201353091 0.0001423612889 0)
(-0.001442374894 0.000133016532 0)
(-0.001671351954 0.0001250089935 0)
(-0.001886892495 0.0001169305966 0)
(-0.002087325968 0.0001083648507 0)
(-0.002270890396 9.91660546e-05 0)
(-0.002435916755 8.928610203e-05 0)
(-0.002580866416 7.873766282e-05 0)
(-0.002704352884 6.757195764e-05 0)
(-0.002805191486 5.586651748e-05 0)
(-0.002882489166 4.37336652e-05 0)
(-0.002935858541 3.137425697e-05 0)
(-0.002965898825 1.922953879e-05 0)
(-0.002974986959 8.114830233e-06 0)
(-0.002964042739 -2.487019377e-06 0)
(-0.002936384347 -1.591762435e-05 0)
(-0.002885356819 -3.215599118e-05 0)
(-0.002806702143 -5.02426703e-05 0)
(-0.002697594671 -6.914701146e-05 0)
(-0.002556754151 -8.797311208e-05 0)
(-0.002384357827 -0.000106067442 0)
(-0.002181668426 -0.0001230003028 0)
(-0.001950620736 -0.000138511011 0)
(-0.001693485988 -0.0001524670065 0)
(-0.001412583454 -0.0001647666465 0)
(-0.001109283882 -0.0001750691601 0)
(-0.0007786996641 -0.0001827266726 0)
(-0.0003942025312 -0.0001899651272 0)
(9.378211452e-05 -0.0002067427759 0)
(0.0005725017286 -0.0002236747246 0)
(0.0009077144893 -0.0002095132523 0)
(0.001235127378 -0.0001938710637 0)
(0.001550648596 -0.0001806707186 0)
(0.001845727149 -0.0001679371011 0)
(0.002116887035 -0.00015470434 0)
(0.002361260447 -0.0001406411345 0)
(0.00257627541 -0.0001256668894 0)
(0.00275988057 -0.0001098618949 0)
(0.002910712275 -9.347533219e-05 0)
(0.003028321178 -7.691970439e-05 0)
(0.003113493527 -6.074195701e-05 0)
(0.003168550948 -4.558457663e-05 0)
(0.003197519863 -3.213641474e-05 0)
(0.003206160746 -2.100776114e-05 0)
(0.003197455224 -1.086517196e-05 0)
(0.003176027032 1.442604189e-06 0)
(0.003137245414 1.539139209e-05 0)
(0.003078837982 3.008196e-05 0)
(0.002999538267 4.481620008e-05 0)
(0.002899019556 5.916173017e-05 0)
(0.002777661944 7.288119678e-05 0)
(0.002636296651 8.584373896e-05 0)
(0.002476039571 9.79671777e-05 0)
(0.002298187485 0.0001091944049 0)
(0.002104145975 0.0001194903874 0)
(0.001895367512 0.0001288477143 0)
(0.001673296514 0.000137293601 0)
(0.001439350425 0.0001448809909 0)
(0.00119500114 0.0001515992815 0)
(0.0009417376992 0.0001570442643 0)
(0.0006785800178 0.0001599045033 0)
(0.0003890521226 0.0001599237275 0)
(2.379593591e-05 0.0001696039691 0)
(-0.0003583658305 0.0001959887662 0)
(-0.0006379676586 0.0001898741423 0)
(-0.000903525948 0.0001686492751 0)
(-0.001178571256 0.0001542257666 0)
(-0.001447970343 0.0001454271464 0)
(-0.001708423706 0.0001390603851 0)
(-0.001958517892 0.000133221764 0)
(-0.002197010531 0.0001270657611 0)
(-0.002422471593 0.0001202613063 0)
(-0.002633299526 0.0001127098974 0)
(-0.002827829915 0.0001044078382 0)
(-0.003004465982 9.538343595e-05 0)
(-0.003161760112 8.568457957e-05 0)
(-0.003298437835 7.538564223e-05 0)
(-0.00341341305 6.459008868e-05 0)
(-0.003505837735 5.34288443e-05 0)
(-0.003575212909 4.206761563e-05 0)
(-0.003621639099 3.075905125e-05 0)
(-0.003646362639 2.001734064e-05 0)
(-0.003652655016 1.076548013e-05 0)
(-0.003638379986 1.493695155e-06 0)
(-0.003607790947 -1.177557845e-05 0)
(-0.00355209657 -2.775747101e-05 0)
(-0.003467106662 -4.560150359e-05 0)
(-0.00335012354 -6.439834373e-05 0)
(-0.003199868807 -8.333169195e-05 0)
(-0.003016340026 -0.0001017691608 0)
(-0.002800523966 -0.0001192693056 0)
(-0.002554061983 -0.000135557058 0)
(-0.002278910448 -0.000150508616 0)
(-0.001977009226 -0.0001641430067 0)
(-0.001649964585 -0.0001765845595 0)
(-0.001298569389 -0.0001878978914 0)
(-0.0009200887281 -0.0001977439131 0)
(-0.0004915291618 -0.0002068013691 0)
(4.024366061e-05 -0.0002293611162 0)
(0.0005761723207 -0.0002463645856 0)
(0.0009693636844 -0.0002273911274 0)
(0.001354900845 -0.0002113645409 0)
(0.001723059412 -0.0001986178924 0)
(0.002069178108 -0.0001869443137 0)
(0.002391141478 -0.0001749812281 0)
(0.00268685873 -0.000162108456 0)
(0.002953932118 -0.0001480871798 0)
(0.003189932144 -0.0001329496467 0)
(0.003392776691 -0.0001168914028 0)
(0.003561069348 -0.0001002249966 0)
(0.003694360174 -8.337644654e-05 0)
(0.003793387395 -6.690307843e-05 0)
(0.003860329954 -5.147953805e-05 0)
(0.003899045534 -3.783904784e-05 0)
(0.003915349804 -2.672664282e-05 0)
(0.003913410059 -1.738875145e-05 0)
(0.003896147411 -7.003551418e-06 0)
(0.003862615061 5.820346577e-06 0)
(0.003809265395 1.982296121e-05 0)
(0.003734178731 3.418055994e-05 0)
(0.003636688339 4.838710544e-05 0)
(0.003516928827 6.214666119e-05 0)
(0.003375547962 7.527962484e-05 0)
(0.003213530512 8.766830451e-05 0)
(0.003032088714 9.923145861e-05 0)
(0.00283258955 0.0001099132549 0)
(0.002616498753 0.0001196802612 0)
(0.002385326073 0.0001285246752 0)
(0.002140557903 0.0001364736407 0)
(0.001883569348 0.0001436011655 0)
(0.001615518906 0.0001500336509 0)
(0.001337257688 0.000155919549 0)
(0.001049254257 0.0001612752171 0)
(0.0007506611074 0.0001656161031 0)
(0.0004321336951 0.0001686502624 0)
(6.36739945e-05 0.000180452616 0)
(-0.0003204217024 0.0002006684973 0)
(-0.0006321144951 0.0001911015174 0)
(-0.0009366331776 0.0001730451386 0)
(-0.001240307612 0.0001605213893 0)
(-0.001535589925 0.000152546939 0)
(-0.001821121468 0.0001467288003 0)
(-0.002096356425 0.0001415185771 0)
(-0.002360465886 0.0001361746173 0)
(-0.002612288819 0.0001303754893 0)
(-0.002850526796 0.0001239607332 0)
(-0.003073828011 0.0001168586617 0)
(-0.003280804039 0.0001090512445 0)
(-0.003470066265 0.0001005627522 0)
(-0.00364028934 9.145188466e-05 0)
(-0.003790290668 8.179887026e-05 0)
(-0.003919100113 7.170053119e-05 0)
(-0.00402600418 6.127239536e-05 0)
(-0.004110579796 5.064788904e-05 0)
(-0.004172762261 3.998362155e-05 0)
(-0.004213086678 2.953456957e-05 0)
(-0.004233469612 1.993130414e-05 0)
(-0.004236523901 1.188831174e-05 0)
(-0.004221246625 3.397824382e-06 0)
(-0.004188200202 -9.42333901e-06 0)
(-0.004130036569 -2.503613623e-05 0)
(-0.004041978862 -4.246924613e-05 0)
(-0.003921277551 -6.085692076e-05 0)
(-0.003766609263 -7.943116975e-05 0)
(-0.003577864978 -9.758352659e-05 0)
(-0.00335588717 -0.0001148758031 0)
(-0.003102174409 -0.000131021299 0)
(-0.002818588366 -0.000145868033 0)
(-0.002507058975 -0.0001593949833 0)
(-0.002169271984 -0.0001717172364 0)
(-0.001806336932 -0.0001830770974 0)
(-0.001418411093 -0.0001937381775 0)
(-0.001002926089 -0.0002036060724 0)
(-0.0005351466788 -0.0002128141164 0)
(3.826566825e-05 -0.0002348972247 0)
(0.0006139394053 -0.0002485584771 0)
(0.001056471429 -0.0002327463869 0)
(0.001484529872 -0.0002197302852 0)
(0.001891767872 -0.0002088292634 0)
(0.002276450059 -0.0001984863116 0)
(0.002637322768 -0.0001876625344 0)
(0.002972660894 -0.0001758613002 0)
(0.003280242439 -0.0001628826816 0)
(0.00355772258 -0.0001486708109 0)
(0.003802830505 -0.0001333159579 0)
(0.004013593959 -0.0001170316939 0)
(0.004188630146 -0.0001001554778 0)
(0.004327452938 -8.316847405e-05 0)
(0.004430803858 -6.669058612e-05 0)
(0.004500962698 -5.144476903e-05 0)
(0.00454197716 -3.820415324e-05 0)
(0.004560031061 -2.777354035e-05 0)
(0.004559179818 -1.936538341e-05 0)
(0.004541943637 -9.891953077e-06 0)
(0.004507736705 2.202655532e-06 0)
(0.004452664873 1.5642249e-05 0)
(0.004374705765 2.961293347e-05 0)
(0.004273103074 4.36176427e-05 0)
(0.004147884058 5.73667168e-05 0)
(0.003999562694 7.068609829e-05 0)
(0.003828967217 8.346049848e-05 0)
(0.003637149752 9.560469287e-05 0)
(0.003425335546 0.0001070530917 0)
(0.003194884786 0.0001177591 0)
(0.002947247828 0.000127700777 0)
(0.002683905454 0.0001368913238 0)
(0.002406284524 0.0001453943913 0)
(0.002115643339 0.000153344305 0)
(0.001812927187 0.0001609675656 0)
(0.001498632605 0.0001685833396 0)
(0.001172749656 0.0001765005714 0)
(0.0008341309272 0.0001846688535 0)
(0.0004728322266 0.0001931985565 0)
(5.335489261e-05 0.0002141838963 0)
(-0.0003852024859 0.0002324168669 0)
(-0.0007344250099 0.0002113159136 0)
(-0.001083064018 0.0001897819144 0)
(-0.001426239274 0.0001761012919 0)
(-0.001758248989 0.0001677594484 0)
(-0.002078863104 0.0001618687563 0)
(-0.002388138815 0.0001567319361 0)
(-0.002685618195 0.0001514494658 0)
(-0.002970297808 0.0001456147682 0)
(-0.00324078462 0.0001390663405 0)
(-0.003495541295 0.0001317432875 0)
(-0.003733038654 0.000123649372 0)
(-0.003951830659 0.0001148273532 0)
(-0.004150602886 0.0001053351391 0)
(-0.004328189633 9.524410197e-05 0)
(-0.004483582258 8.464866273e-05 0)
(-0.004615960446 7.366950279e-05 0)
(-0.004724749134 6.244813765e-05 0)
(-0.00480967871 5.113859229e-05 0)
(-0.004870891293 3.992165448e-05 0)
(-0.004909290487 2.913848558e-05 0)
(-0.004927635009 1.96546898e-05 0)
(-0.004927525679 1.159800672e-05 0)
(-0.004908557721 2.140225986e-06 0)
(-0.00486894649 -1.153470874e-05 0)
(-0.004801606011 -2.822638391e-05 0)
(-0.004701716868 -4.681250681e-05 0)
(-0.004566382175 -6.632434698e-05 0)
(-0.004394331801 -8.597009714e-05 0)
(-0.004185544865 -0.0001051406062 0)
(-0.003940932305 -0.0001233979194 0)
(-0.003662048663 -0.0001404518761 0)
(-0.003350813018 -0.0001561447881 0)
(-0.003009224445 -0.0001704515135 0)
(-0.002639036042 -0.0001834943639 0)
(-0.002241364861 -0.0001955613055 0)
(-0.001816218991 -0.0002070969567 0)
(-0.001361711989 -0.0002185886627 0)
(-0.0008688480856 -0.0002305053973 0)
(-0.0002829649222 -0.0002490625941 0)
(0.0004047751557 -0.0002720008399 0)
(0.0009644488998 -0.0002628848616 0)
(0.001456237619 -0.0002462092662 0)
(0.001928513432 -0.0002340804069 0)
(0.002375123764 -0.0002234490595 0)
(0.002796610608 -0.0002128702857 0)
(0.00319228813 -0.0002015127787 0)
(0.003560404695 -0.0001889203372 0)
(0.003898499472 -0.0001749400538 0)
(0.004203914769 -0.0001595919383 0)
(0.00447417368 -0.0001430117367 0)
(0.00470721455 -0.0001254570377 0)
(0.004901631216 -0.0001073030257 0)
(0.00505695458 -8.904248262e-05 0)
(0.005173935557 -7.130229057e-05 0)
(0.005254829631 -5.484170259e-05 0)
(0.005303665286 -4.050382391e-05 0)
(0.005326743542 -2.919546842e-05 0)
(0.005329694068 -2.077746552e-05 0)
(0.005314044954 -1.202235187e-05 0)
(0.005281560814 -9.834560329e-08 0)
(0.005227271368 1.345959818e-05 0)
(0.00514872413 2.773461506e-05 0)
(0.005044882477 4.21694236e-05 0)
(0.004915571019 5.643445873e-05 0)
(0.004761156158 7.032591001e-05 0)
(0.004582368884 8.370534544e-05 0)
(0.004380212083 9.647162497e-05 0)
(0.004155894029 0.0001085490957 0)
(0.003910776803 0.0001198847764 0)
(0.003646323057 0.0001304513095 0)
(0.003364040587 0.0001402542954 0)
(0.003065411711 0.0001493445817 0)
(0.002751802767 0.0001578395745 0)
(0.002424337561 0.0001659554972 0)
(0.002083735752 0.0001740505911 0)
(0.00173015005 0.0001826633003 0)
(0.001363178176 0.0001924680883 0)
(0.0009820900795 0.0002038774232 0)
(0.0005802893252 0.0002164056094 0)
(0.0001087707403 0.0002380279373 0)
(-0.0004091505567 0.0002558564418 0)
(-0.0008158213568 0.0002333107883 0)
(-0.001210875905 0.0002092100817 0)
(-0.001600471179 0.0001940039388 0)
(-0.001977348308 0.0001850749308 0)
(-0.002341762169 0.0001791319759 0)
(-0.002694166686 0.0001742141891 0)
(-0.003034228798 0.0001693367372 0)
(-0.003361077335 0.0001639713064 0)
(-0.003673511744 0.0001578476265 0)
(-0.003970095716 0.0001508630428 0)
(-0.004249275735 0.0001429970688 0)
(-0.004509487461 0.0001342652392 0)
(-0.00474920433 0.0001247105703 0)
(-0.004966978012 0.0001144053822 0)
(-0.005161498029 0.000103447717 0)
(-0.005331665339 9.195806555e-05 0)
(-0.005476650941 8.007677436e-05 0)
(-0.005595934183 6.7961972e-05 0)
(-0.005689323206 5.57770542e-05 0)
(-0.005757031813 4.370125178e-05 0)
(-0.005800026722 3.207993129e-05 0)
(-0.005821274116 2.185575686e-05 0)
(-0.005822856878 1.34496293e-05 0)
(-0.005803533607 3.715758276e-06 0)
(-0.00576205042 -1.084658698e-05 0)
(-0.00569022885 -2.890838302e-05 0)
(-0.005582412263 -4.927470505e-05 0)
(-0.00543510461 -7.090120914e-05 0)
(-0.005246591902 -9.289152881e-05 0)
(-0.005016579466 -0.000114543646 0)
(-0.004745850952 -0.0001353516385 0)
(-0.004435941053 -0.0001549772074 0)
(-0.004088817253 -0.0001732310286 0)
(-0.003706566756 -0.0001900741693 0)
(-0.00329103466 -0.0002056414393 0)
(-0.002843383099 -0.0002202827648 0)
(-0.002363525257 -0.0002346131171 0)
(-0.001849419226 -0.0002495307087 0)
(-0.001295279101 -0.0002660990771 0)
(-0.0006685373328 -0.0002866330734 0)
(0.0001142453036 -0.00031730608 0)
(0.0008759315143 -0.0003202510948 0)
(0.001470469323 -0.00029472866 0)
(0.002038181264 -0.0002778374784 0)
(0.002571635383 -0.0002642852797 0)
(0.003074229461 -0.0002516765896 0)
(0.003546676632 -0.0002387533098 0)
(0.003988092178 -0.0002248085805 0)
(0.004396519073 -0.0002094524039 0)
(0.004769359487 -0.0001925480328 0)
(0.005103826312 -0.0001741579851 0)
(0.005397353346 -0.000154485542 0)
(0.005647891496 -0.0001338563217 0)
(0.0058541808 -0.0001127362788 0)
(0.006016082527 -9.176000114e-05 0)
(0.006134977432 -7.173994184e-05 0)
(0.006214132945 -5.362890234e-05 0)
(0.006259000754 -3.843662229e-05 0)
(0.006277885464 -2.720285871e-05 0)
(0.006274114796 -1.825891001e-05 0)
(0.006251087981 -7.4128722e-06 0)
(0.00620675437 6.290521707e-06 0)
(0.006136894326 2.14676451e-05 0)
(0.006039316823 3.723475736e-05 0)
(0.005913182152 5.305120355e-05 0)
(0.005758501782 6.859260046e-05 0)
(0.005575837253 8.365525997e-05 0)
(0.005366126207 9.809993183e-05 0)
(0.005130570958 0.0001118232196 0)
(0.00487056883 0.0001247470148 0)
(0.004587657235 0.0001368149107 0)
(0.004283467975 0.0001479963649 0)
(0.003959670299 0.0001582949089 0)
(0.003617898865 0.000167764038 0)
(0.003259645791 0.0001765302132 0)
(0.002886110617 0.0001848295108 0)
(0.00249798514 0.0001930591521 0)
(0.002095178055 0.0002018432461 0)
(0.001676542648 0.0002120769676 0)
(0.001239805629 0.000224801001 0)
(0.0007800271198 0.0002406643744 0)
(0.0002618500577 0.0002628507814 0)
(-0.0003292801099 0.0002831070547 0)
(-0.0008294270448 0.0002632400982 0)
(-0.001286658087 0.0002353594433 0)
(-0.001734461902 0.0002177503663 0)
(-0.002164467612 0.0002073954823 0)
(-0.002578693524 0.0002006296887 0)
(-0.002978865591 0.0001952021473 0)
(-0.003365391752 0.0001899263346 0)
(-0.003737669078 0.0001842092893 0)
(-0.004094545223 0.0001777549393 0)
(-0.004434588853 0.000170417281 0)
(-0.004756212409 0.0001621450897 0)
(-0.005057764566 0.0001529501327 0)
(-0.005337634802 0.0001428815948 0)
(-0.005594330923 0.0001320104205 0)
(-0.005826519462 0.0001204254225 0)
(-0.006033045232 0.000108235087 0)
(-0.006212964743 9.557355294e-05 0)
(-0.006365595284 8.260327977e-05 0)
(-0.006490565764 6.950286438e-05 0)
(-0.006587844154 5.643898627e-05 0)
(-0.006657816404 4.358611388e-05 0)
(-0.00670169014 3.133624561e-05 0)
(-0.006722989816 2.07957806e-05 0)
(-0.006723182065 1.208757995e-05 0)
(-0.006701169595 1.534924333e-06 0)
(-0.006654633809 -1.407484375e-05 0)
(-0.006575023932 -3.346168494e-05 0)
(-0.006456292735 -5.538123952e-05 0)
(-0.006294598585 -7.87100847e-05 0)
(-0.006088003596 -0.0001024957503 0)
(-0.005836078634 -0.0001259968701 0)
(-0.005539540826 -0.0001486747807 0)
(-0.005199916586 -0.0001701614146 0)
(-0.004819222608 -0.0001902366019 0)
(-0.004399654169 -0.0002088283573 0)
(-0.003943228653 -0.000226038122 0)
(-0.003451338118 -0.0002421887926 0)
(-0.002924143929 -0.0002578921257 0)
(-0.002359762083 -0.0002741255271 0)
(-0.001753009283 -0.0002923127506 0)
(-0.001089766086 -0.0003148219198 0)
(-0.0002839128512 -0.0003552788017 0)
(0.0006867777335 -0.0003745896627 0)
(0.001410749026 -0.0003401960044 0)
(0.002068668933 -0.0003176720667 0)
(0.002685371251 -0.0003017155552 0)
(0.003265938915 -0.0002877920084 0)
(0.003813158492 -0.0002739868617 0)
(0.004327102842 -0.0002592914452 0)
(0.004806137987 -0.0002431705662 0)
(0.005247707973 -0.0002253778658 0)
(0.00564883351 -0.0002058730247 0)
(0.006006505132 -0.0001847872333 0)
(0.006318047736 -0.0001624005531 0)
(0.006581468701 -0.0001391291485 0)
(0.006795781543 -0.0001155381991 0)
(0.006961349719 -9.23719183e-05 0)
(0.00708026499 -7.05700846e-05 0)
(0.007156724363 -5.122637305e-05 0)
(0.00719736463 -3.549450531e-05 0)
(0.00721217605 -2.453924115e-05 0)
(0.007201874246 -1.523883294e-05 0)
(0.007172153822 -2.659632537e-06 0)
(0.007117416882 1.253854437e-05 0)
(0.007033976249 2.907231491e-05 0)
(0.006919878411 4.609285332e-05 0)
(0.006774471366 6.307828192e-05 0)
(0.006597941436 7.971460482e-05 0)
(0.006391008946 9.580187525e-05 0)
(0.00615474249 0.0001112005746 0)
(0.005890460241 0.0001258044659 0)
(0.005599669634 0.0001395316221 0)
(0.0052840239 0.0001523240863 0)
(0.004945272239 0.0001641520188 0)
(0.004585199595 0.0001750213077 0)
(0.004205545524 0.0001849881241 0)
(0.003807894993 0.0001941834038 0)
(0.003393517962 0.0002028525408 0)
(0.002963133534 0.0002114161784 0)
(0.002516570943 0.0002205604659 0)
(0.002052331921 0.0002313567965 0)
(0.001567153543 0.000245371603 0)
(0.001055491707 0.0002646071884 0)
(0.0004982487079 0.0002923104045 0)
(-0.0001478547809 0.0003246935758 0)
(-0.0007582429246 0.0003082685394 0)
(-0.001280658292 0.0002694208191 0)
(-0.001791866665 0.0002454311133 0)
(-0.00227844857 0.0002316777258 0)
(-0.002744587455 0.0002230924872 0)
(-0.003193500065 0.0002166783706 0)
(-0.003626676969 0.000210841386 0)
(-0.004044207831 0.0002047481432 0)
(-0.004445264571 0.0001979755576 0)
(-0.004828512408 0.0001903195304 0)
(-0.005192387836 0.0001816911665 0)
(-0.005535234469 0.0001720724437 0)
(-0.005855370748 0.0001614899032 0)
(-0.006151149384 0.0001500031496 0)
(-0.006421016964 0.0001376982578 0)
(-0.006663585453 0.0001246850627 0)
(-0.006877705832 0.0001111015809 0)
(-0.007062534766 9.711631327e-05 0)
(-0.007217576766 8.292167089e-05 0)
(-0.007342692253 6.870842393e-05 0)
(-0.007438094624 5.464065234e-05 0)
(-0.007504491461 4.092867243e-05 0)
(-0.007543705375 2.814756907e-05 0)
(-0.007560633915 1.774761808e-05 0)
(-0.007553365196 8.296296233e-06 0)
(-0.007523012287 -4.800665751e-06 0)
(-0.00746290319 -2.280048954e-05 0)
(-0.007364910998 -4.455547624e-05 0)
(-0.007223144806 -6.877894924e-05 0)
(-0.007033955677 -9.425300906e-05 0)
(-0.006795683346 -0.0001199870879 0)
(-0.006508239871 -0.000145240241 0)
(-0.006172679277 -0.0001694844704 0)
(-0.005790831535 -0.0001923630355 0)
(-0.005364971394 -0.0002136670544 0)
(-0.004897488207 -0.0002333411093 0)
(-0.004390497401 -0.0002515132985 0)
(-0.003845334657 -0.0002685505657 0)
(-0.003261844876 -0.0002851348712 0)
(-0.002637324195 -0.0003023647239 0)
(-0.001964605696 -0.0003219538095 0)
(-0.001225557247 -0.0003474545491 0)
(-0.0003391454281 -0.0003968512299 0)
(0.0007374806996 -0.0004150643693 0)
(0.00154784868 -0.0003718982502 0)
(0.002279376668 -0.0003465336213 0)
(0.002958212751 -0.0003288637991 0)
(0.003594934908 -0.0003134342222 0)
(0.004194391587 -0.0002982655421 0)
(0.004757651347 -0.0002822867051 0)
(0.005283512353 -0.0002648907672 0)
(0.005769550243 -0.0002457922581 0)
(0.006212804024 -0.0002249321437 0)
(0.006610231268 -0.0002024199581 0)
(0.006959043788 -0.0001785059825 0)
(0.007257020319 -0.000153581053 0)
(0.007502840514 -0.0001281903478 0)
(0.007696469832 -0.0001030617612 0)
(0.00783957614 -7.912763175e-05 0)
(0.007935931788 -5.749595064e-05 0)
(0.007991751824 -3.93579455e-05 0)
(0.008016573901 -2.596981239e-05 0)
(0.008015357659 -1.593971361e-05 0)
(0.007990824793 -4.398943882e-06 0)
(0.007942567447 1.06713612e-05 0)
(0.007865180084 2.755488112e-05 0)
(0.007755933066 4.518895779e-05 0)
(0.007613763787 6.293462053e-05 0)
(0.007438602591 8.041567827e-05 0)
(0.007230988632 9.739752183e-05 0)
(0.006991860062 0.0001137201986 0)
(0.006722444949 0.0001292628855 0)
(0.006424195298 0.0001439319716 0)
(0.006098739932 0.0001576565156 0)
(0.005747835414 0.0001703899793 0)
(0.005373310797 0.0001821143964 0)
(0.00497700367 0.0001928515501 0)
(0.004560672903 0.0002026798638 0)
(0.00412587412 0.0002117662488 0)
(0.003673777792 0.0002204129809 0)
(0.003204897823 0.0002291354993 0)
(0.002718704079 0.0002387830994 0)
(0.002213130106 0.0002507257836 0)
(0.001684194147 0.0002670852277 0)
(0.001126182011 0.0002907739574 0)
(0.0005150286076 0.0003257092151 0)
(-0.000211323786 0.0003578951877 0)
(-0.0008819286429 0.0003318480516 0)
(-0.001451633261 0.0002887263486 0)
(-0.002005952583 0.0002629012188 0)
(-0.002533796908 0.0002483104594 0)
(-0.003040117766 0.0002393183864 0)
(-0.003528549597 0.0002327040504 0)
(-0.004000774578 0.0002267942388 0)
(-0.004457008407 0.0002206994763 0)
(-0.004896510455 0.0002139475109 0)
(-0.005317950715 0.0002062891979 0)
(-0.00571968032 0.000197617204 0)
(-0.006099909597 0.0001879047706 0)
(-0.006456833703 0.0001771697314 0)
(-0.006788706416 0.000165462465 0)
(-0.007093888542 0.0001528571748 0)
(-0.007370888765 0.0001394528001 0)
(-0.007618410472 0.0001253765133 0)
(-0.007835410146 0.0001107886609 0)
(-0.008021164222 9.588290447e-05 0)
(-0.008175312017 8.086662185e-05 0)
(-0.008297852987 6.59142382e-05 0)
(-0.008389140444 5.115782488e-05 0)
(-0.008450101218 3.684680102e-05 0)
(-0.008483097769 2.378128031e-05 0)
(-0.008494457716 1.381467568e-05 0)
(-0.008477578121 3.633014868e-06 0)
(-0.008436827339 -1.22511168e-05 0)
(-0.008360313389 -3.285091341e-05 0)
(-0.008240553527 -5.708350776e-05 0)
(-0.0080719648 -8.36627455e-05 0)
(-0.007851170587 -0.0001113593357 0)
(-0.007576760798 -0.0001391765317 0)
(-0.007248882656 -0.0001663773463 0)
(-0.006868807955 -0.0001924387409 0)
(-0.006438553472 -0.0002170085284 0)
(-0.005960535994 -0.0002398851018 0)
(-0.00543721524 -0.0002610301954 0)
(-0.004870649041 -0.0002806077602 0)
(-0.004261881338 -0.0002990496507 0)
(-0.003610031786 -0.0003171439341 0)
(-0.002910800348 -0.0003361542557 0)
(-0.002153284323 -0.0003581056125 0)
(-0.001311291106 -0.0003879426664 0)
(-0.0003094357264 -0.0004540300538 0)
(0.0008829238561 -0.0004656647628 0)
(0.001777196216 -0.0004057139325 0)
(0.002603911278 -0.0003804728073 0)
(0.003359335602 -0.0003619690773 0)
(0.004065892758 -0.0003452339939 0)
(0.00473018426 -0.0003285359058 0)
(0.005354040018 -0.0003108554712 0)
(0.005936513166 -0.0002915770987 0)
(0.006475130319 -0.0002704035685 0)
(0.006966719016 -0.0002472823365 0)
(0.007407985896 -0.0002223435314 0)
(0.007795935495 -0.0001958698638 0)
(0.00812820252 -0.0001682869347 0)
(0.008403377552 -0.0001401762859 0)
(0.008621390852 -0.0001123077793 0)
(0.00878393815 -8.567126274e-05 0)
(0.008894907748 -6.145597934e-05 0)
(0.008960753473 -4.09563724e-05 0)
(0.00899144728 -2.554632266e-05 0)
(0.00899393182 -1.447866815e-05 0)
(0.008970281124 -2.523980496e-06 0)
(0.008922117981 1.361405166e-05 0)
(0.008842949991 3.195878234e-05 0)
(0.008729451137 5.131734415e-05 0)
(0.008580198342 7.097672021e-05 0)
(0.008394899341 9.051316561e-05 0)
(0.00817397928 0.0001096654578 0)
(0.007918339275 0.0001282602037 0)
(0.007629221622 0.0001461785704 0)
(0.007308124642 0.0001633443507 0)
(0.006956735672 0.0001797229309 0)
(0.006576879193 0.0001953281916 0)
(0.006170468284 0.0002102398706 0)
(0.005739453398 0.0002246371052 0)
(0.005285760615 0.0002388606852 0)
(0.004811207556 0.0002535379921 0)
(0.004317394058 0.0002698496749 0)
(0.003805623569 0.0002901532636 0)
(0.003277536732 0.0003195259802 0)
(0.002741782655 0.0003693055732 0)
(0.00226020699 0.0004610473262 0)
(0.001979065004 0.0005979473503 0)
(0.001939209484 0.0006816623452 0)
(-6.222733167e-05 0.0004524808455 0)
(-0.001930862842 0.0006930224534 0)
(-0.001980713314 0.0005376136467 0)
(-0.002479114802 0.0004183282305 0)
(-0.003068396115 0.0003546726944 0)
(-0.003650648421 0.0003195531218 0)
(-0.004272978404 0.0002934584561 0)
(-0.004902737353 0.000284736642 0)
(-0.005469944327 0.000273843587 0)
(-0.006051377912 0.0002609484751 0)
(-0.006645110569 0.0002560451721 0)
(-0.007193819135 0.0002546200012 0)
(-0.007698675969 0.0002499028537 0)
(-0.008164497579 0.000245104373 0)
(-0.008587681108 0.0002392823568 0)
(-0.008964023209 0.0002337239789 0)
(-0.009326178813 0.0002252205276 0)
(-0.00974609726 0.0002127982617 0)
(-0.01017318155 0.0001732246787 0)
(-0.009857166205 -4.489769321e-05 0)
(-0.007579999722 -0.0006045114476 0)
(-0.01926479655 -0.006132530878 0)
(-0.08064766746 0.02041745939 0)
(-0.1338867185 0.03879286428 0)
(-0.2067796495 0.05251541869 0)
(-0.2916497318 0.06184976401 0)
(-0.3827359673 0.06593070965 0)
(-0.4741188548 0.065121559 0)
(-0.5630162941 0.06003517266 0)
(0.001049128997 -0.007158678896 0)
(0.002642632137 -0.008815133632 0)
(-0.0002164170346 -0.007182199321 0)
(-0.006308785897 -0.006497285343 0)
(0.001246262621 -0.001394682648 0)
(0.0045581805 -0.002929636043 0)
(-0.0007627841533 -0.001416403249 0)
(-0.0007142286075 -0.002066436355 0)
(0.00443157468 -0.004749774406 0)
(0.003462974301 -0.0006141114656 0)
(2.325300897e-06 -0.005092214933 0)
(-0.009974911751 -0.004430740329 0)
(-0.0003959773486 0.0005628859775 0)
(0.004115489213 0.0009583040072 0)
(-0.0001544902671 0.0009191655074 0)
(-3.241433061e-06 -0.001283686671 0)
(-0.0005205849405 0.0003087027726 0)
(-0.001631218591 0.002497754342 0)
(-0.00222053261 0.001165659841 0)
(-0.002032722651 -0.0002566572454 0)
(-0.002028089438 -0.0005449859458 0)
(-0.00210360225 -0.0007188716201 0)
(-0.002045924959 -0.001047370697 0)
(0.002186438206 -0.0005065783972 0)
(0.0007136377538 -0.001455605312 0)
(-0.001795223426 -0.001100406275 0)
(-0.001689104869 0.001916357239 0)
(0.001833923159 3.734832487e-05 0)
(0.001676899807 -0.0008120659484 0)
(0.0003920419983 -0.001422575925 0)
(0.0003502764735 -0.001279232547 0)
(0.001177199946 -0.0006882715281 0)
(0.001689666807 -0.0009865939338 0)
(0.001990957924 -0.0004559350692 0)
(0.003213079632 -0.0001561661083 0)