# Solver information
# Time            	U_solver          	Ux_initial        	Ux_final          	Ux_iters          	Uy_initial        	Uy_final          	Uy_iters          	U_converged       	epsilon_solver    	epsilon_initial   	epsilon_final     	epsilon_iters     	epsilon_converged 	k_solver          	k_initial         	k_final           	k_iters           	k_converged       	p_solver          	p_initial         	p_final           	p_iters           	p_converged       
1                 	GAMG	1.0000000000e+00	5.9084155670e-04	2	2.7679913330e-02	1.1397514730e-05	2	false	GAMG	6.1340317000e-02	3.3643179870e-05	2	true	GAMG	9.9999999960e-01	6.1875986550e-03	1	true	GAMG	1.0000000000e+00	2.5151889380e-03	13	true
2                 	GAMG	3.1557474540e-01	5.4483285520e-04	1	2.5651842810e-01	1.3164309850e-03	1	false	GAMG	7.3459949840e-03	3.0574939180e-06	2	true	GAMG	7.0601153000e-01	3.6224819690e-03	1	true	GAMG	4.0879784560e-03	1.2815981960e-05	11	true
3                 	GAMG	1.9634493630e-01	3.4525037520e-04	1	1.6183209680e-01	4.7915237740e-04	1	false	GAMG	4.5840105760e-03	1.2275743960e-06	2	true	GAMG	3.7295564210e-01	2.3625386140e-03	1	true	GAMG	3.5999768290e-03	8.8143363750e-06	8	true
4                 	GAMG	1.3205256150e-01	2.1487585240e-04	1	1.1104590600e-01	2.5178443510e-04	1	false	GAMG	4.3497481240e-03	4.0962319470e-05	1	true	GAMG	2.5475398590e-01	1.6306968180e-03	1	true	GAMG	4.8896946670e-03	1.1100843780e-05	9	true
5                 	GAMG	8.7150226940e-02	1.3182449350e-04	1	7.4097730930e-02	1.5249552750e-04	1	false	GAMG	5.0924741590e-03	4.2917225670e-05	1	true	GAMG	1.7367803450e-01	1.0464370830e-03	1	true	GAMG	7.6890782330e-03	3.1209748690e-05	9	true
6                 	GAMG	5.0988691430e-02	7.9142069530e-05	1	4.5506212140e-02	1.0017204580e-04	1	false	GAMG	5.3933789790e-03	3.5048976470e-05	1	true	GAMG	1.1652758730e-01	6.6503980640e-04	1	true	GAMG	1.3285842050e-02	5.9680342250e-05	9	true
7                 	GAMG	2.0272111110e-02	5.1883514590e-05	1	2.2835465390e-02	7.1942219900e-05	1	false	GAMG	5.4407626090e-03	5.3491438670e-05	1	true	GAMG	8.0563136310e-02	4.6743197150e-04	1	true	GAMG	3.7889930400e-02	1.5849741350e-04	9	true
8                 	GAMG	1.7759091320e-02	5.7743252230e-05	1	1.6738259100e-02	7.4920148370e-05	1	false	GAMG	4.4637572470e-03	1.0187425230e-06	2	true	GAMG	5.9405404660e-02	3.6538288020e-04	1	true	GAMG	3.7782125590e-02	9.9423785560e-05	9	true
9                 	GAMG	4.2356656110e-02	7.6574028880e-05	1	2.7981285130e-02	1.0478135620e-04	1	false	GAMG	3.9246462310e-03	2.9172158220e-05	1	true	GAMG	5.5121224450e-02	3.3179522850e-04	1	true	GAMG	1.3412650230e-02	3.9937265780e-05	8	true
10                	GAMG	6.0754682640e-02	1.0183971780e-04	1	4.3027378490e-02	1.2335757900e-04	1	false	GAMG	4.2257200510e-03	3.2821859030e-05	1	true	GAMG	5.7774202760e-02	3.4715544000e-04	1	true	GAMG	9.6932375970e-03	4.4183516060e-05	6	true
11                	GAMG	6.8634941880e-02	1.0860897400e-04	1	5.2858461730e-02	1.8429071440e-04	1	false	GAMG	3.3176798670e-03	1.7889721400e-05	1	true	GAMG	6.0722300220e-02	3.1601978650e-04	1	true	GAMG	9.7405833490e-03	3.4490509660e-05	7	true
12                	GAMG	6.1767168640e-02	9.7881061420e-05	1	5.0432921110e-02	1.4902410150e-04	1	false	GAMG	2.8575835200e-03	1.8380777730e-05	1	true	GAMG	6.1811918950e-02	3.2850983370e-04	1	true	GAMG	1.0647520220e-02	2.4879483110e-05	9	true
13                	GAMG	4.0908729050e-02	6.3995534230e-05	1	3.6737249390e-02	1.1806735140e-04	1	false	GAMG	2.0263347590e-03	1.2526077450e-05	1	true	GAMG	6.2087685840e-02	3.0729165830e-04	1	true	GAMG	1.5686132140e-02	5.5630671760e-05	9	true
14                	GAMG	1.4919794000e-02	3.3841801660e-05	1	2.3383753860e-02	1.0215646990e-04	1	false	GAMG	1.6512131750e-03	1.1651887480e-05	1	true	GAMG	6.0819440130e-02	2.9385660080e-04	1	true	GAMG	4.2702742710e-02	1.4133971080e-04	9	true
15                	GAMG	1.6767950440e-02	3.7563738550e-05	1	2.0988048300e-02	8.5093077530e-05	1	false	GAMG	1.3653273750e-03	9.8671086520e-06	1	true	GAMG	5.9180080810e-02	2.7806607690e-04	1	true	GAMG	3.8334359190e-02	8.0356137170e-05	9	true
16                	GAMG	2.6927142720e-02	4.7472870120e-05	1	2.5847979210e-02	7.8579728790e-05	1	false	GAMG	1.1618941250e-03	8.6222106870e-06	1	true	GAMG	5.8899701770e-02	2.6338643290e-04	1	true	GAMG	1.7785055630e-02	5.6142285420e-05	7	true
17                	GAMG	2.9241677080e-02	4.8521606050e-05	1	2.8055608670e-02	6.6373184330e-05	1	false	GAMG	1.0498141660e-03	7.6578407800e-06	1	true	GAMG	5.8200447910e-02	2.4755206680e-04	1	true	GAMG	1.4619043760e-02	2.9544837080e-05	7	true
18                	GAMG	2.5900208320e-02	4.2940951450e-05	1	2.5621108230e-02	5.7640300730e-05	1	false	GAMG	1.0008277050e-03	7.3130291660e-06	1	true	GAMG	5.6396737170e-02	2.3187725330e-04	1	true	GAMG	1.4731236430e-02	5.1272186710e-05	7	true
19                	GAMG	1.9294263670e-02	3.4181903190e-05	1	1.9979648400e-02	4.5240912040e-05	1	false	GAMG	1.0343859220e-03	7.7267214340e-06	1	true	GAMG	5.4244463380e-02	2.1951699260e-04	1	true	GAMG	1.8629151310e-02	7.4512007920e-05	8	true
20                	GAMG	1.1432799260e-02	2.4358105400e-05	1	1.2982995690e-02	3.5203624260e-05	1	false	GAMG	1.1511149840e-03	8.4584965040e-06	1	true	GAMG	5.2140749780e-02	2.1031390100e-04	1	true	GAMG	3.0609976980e-02	8.0998995850e-05	9	true
21                	GAMG	4.1849452230e-03	1.6621417790e-05	1	7.7759571080e-03	2.9901952360e-05	1	false	GAMG	1.2604346430e-03	9.0320776650e-06	1	true	GAMG	5.0459888530e-02	2.0296137150e-04	1	true	GAMG	1.5060835240e-01	3.2579902060e-04	9	true
22                	GAMG	9.0713485310e-03	1.9213343580e-05	1	8.1247249500e-03	2.9046850810e-05	1	false	GAMG	1.3651457520e-03	9.5299121180e-06	1	true	GAMG	4.9084102950e-02	1.9822603650e-04	1	true	GAMG	3.0075592530e-02	1.0035496990e-04	8	true
23                	GAMG	1.3340452380e-02	2.3175143270e-05	1	1.1462439570e-02	3.1427259110e-05	1	false	GAMG	1.4281346280e-03	9.7600953320e-06	1	true	GAMG	4.7879583410e-02	1.9372000060e-04	1	true	GAMG	1.5913071580e-02	7.2621842170e-05	7	true
24                	GAMG	1.5020067570e-02	2.4498020210e-05	1	1.3424227160e-02	3.3271776170e-05	1	false	GAMG	1.4413265360e-03	9.6358796590e-06	1	true	GAMG	4.6863216120e-02	1.8802987040e-04	1	true	GAMG	1.3294088390e-02	2.6513065600e-05	7	true
25                	GAMG	1.4121833170e-02	2.3090616790e-05	1	1.3228520480e-02	3.3977604680e-05	1	false	GAMG	1.3850347430e-03	9.0262361360e-06	1	true	GAMG	4.5398820580e-02	1.7922091790e-04	1	true	GAMG	1.4045680980e-02	5.0393356300e-05	7	true
26                	GAMG	1.1209627130e-02	1.9612275520e-05	1	1.1706622920e-02	3.3431801460e-05	1	false	GAMG	1.3011488820e-03	8.1846819570e-06	1	true	GAMG	4.3635267270e-02	1.6853908440e-04	1	true	GAMG	1.8366220590e-02	6.5131739630e-05	8	true
27                	GAMG	7.2747817350e-03	1.5437135540e-05	1	9.8115367360e-03	3.2009342490e-05	1	false	GAMG	1.2151781720e-03	7.4540490460e-06	1	true	GAMG	4.1740165750e-02	1.5794169290e-04	1	true	GAMG	3.1023806140e-02	1.1343480200e-04	8	true
28                	GAMG	3.9481401860e-03	1.4048883150e-05	1	8.5078670370e-03	2.9913296270e-05	1	false	GAMG	1.1321456020e-03	6.7434070380e-06	1	true	GAMG	4.0036617260e-02	1.4819095760e-04	1	true	GAMG	9.3234079450e-02	4.0840641620e-04	7	true
29                	GAMG	5.6892109630e-03	1.5947798840e-05	1	8.5685969310e-03	2.7923346510e-05	1	false	GAMG	1.0611781220e-03	6.0508762800e-06	1	true	GAMG	3.8612058110e-02	1.3922715430e-04	1	true	GAMG	4.6778802510e-02	1.3310756240e-04	7	true
30                	GAMG	6.9267923950e-03	1.6991563860e-05	1	8.9406041640e-03	2.6117820350e-05	1	false	GAMG	1.0119786920e-03	5.4250785610e-06	1	true	GAMG	3.7305588370e-02	1.3111004080e-04	1	true	GAMG	2.9691571770e-02	1.0141348920e-04	6	true
31                	GAMG	7.0424432560e-03	1.6716685430e-05	1	8.8226709500e-03	2.4445455510e-05	1	false	GAMG	9.6804330530e-04	4.9140088920e-06	1	true	GAMG	3.6093009780e-02	1.2383563510e-04	1	true	GAMG	2.6268889130e-02	7.2910068960e-05	6	true
32                	GAMG	6.2304524390e-03	1.5392615470e-05	1	8.0769035850e-03	2.2918831400e-05	1	false	GAMG	9.3283287230e-04	4.6425612980e-06	1	true	GAMG	3.4951232410e-02	1.1740230570e-04	1	true	GAMG	2.8286906950e-02	1.3546345190e-04	6	true
33                	GAMG	4.8417435840e-03	1.3477925880e-05	1	6.9588451080e-03	2.1328065800e-05	1	false	GAMG	8.9968261700e-04	4.4939563330e-06	1	true	GAMG	3.3867518920e-02	1.1173950550e-04	1	true	GAMG	3.7196995710e-02	1.1265115110e-04	7	true
34                	GAMG	3.3565721350e-03	1.1631536820e-05	1	6.0204082520e-03	2.0163283860e-05	1	false	GAMG	8.6608410150e-04	4.3749248130e-06	1	true	GAMG	3.2834271370e-02	1.0649458840e-04	1	true	GAMG	6.5593558170e-02	2.0195682220e-04	7	true
35                	GAMG	3.3292905540e-03	1.0385165350e-05	1	5.6723929630e-03	1.9562666300e-05	1	false	GAMG	8.3881287860e-04	4.2746968130e-06	1	true	GAMG	3.1867159100e-02	1.0176278880e-04	1	true	GAMG	6.8539164830e-02	1.8327440260e-04	7	true
36                	GAMG	4.2858067020e-03	1.0271746010e-05	1	5.8933770020e-03	1.9523384470e-05	1	false	GAMG	8.1348764130e-04	4.1867876480e-06	1	true	GAMG	3.0975499560e-02	9.7329609550e-05	1	true	GAMG	3.8475355400e-02	6.6373833960e-05	7	true
37                	GAMG	4.8504938610e-03	1.0404793480e-05	1	6.2490799540e-03	1.9650566720e-05	1	false	GAMG	7.9024041160e-04	4.0965184290e-06	1	true	GAMG	3.0149142400e-02	9.3199264400e-05	1	true	GAMG	2.9751508800e-02	1.0295963780e-04	5	true
38                	GAMG	4.8972063630e-03	1.0266469410e-05	1	6.4635531730e-03	1.9701100570e-05	1	false	GAMG	7.6750799220e-04	4.0023252810e-06	1	true	GAMG	2.9375731920e-02	8.9395825170e-05	1	true	GAMG	2.8097792200e-02	7.0033989310e-05	6	true
39                	GAMG	4.5297598250e-03	9.8657844150e-06	1	6.4003759280e-03	1.9579883480e-05	1	false	GAMG	7.4724473200e-04	3.8949278240e-06	1	true	GAMG	2.8659103640e-02	8.5827905590e-05	1	true	GAMG	3.0221238260e-02	1.0292131920e-04	6	true
40                	GAMG	3.9075806250e-03	9.4208364440e-06	1	6.1359938660e-03	1.9214397000e-05	1	false	GAMG	7.2969149870e-04	3.7845427790e-06	1	true	GAMG	2.7978908230e-02	8.2546110290e-05	1	true	GAMG	3.6492814300e-02	1.3052234970e-04	6	true
41                	GAMG	3.2778443820e-03	9.2729288390e-06	1	5.8044049710e-03	1.8617271110e-05	1	false	GAMG	7.1260806690e-04	3.6762761740e-06	1	true	GAMG	2.7335891630e-02	7.9500998490e-05	1	true	GAMG	4.9812689890e-02	1.7771851280e-04	6	true
42                	GAMG	2.8493145710e-03	9.4187635040e-06	1	5.5317991140e-03	1.7795758760e-05	1	false	GAMG	6.9504878660e-04	3.5781170890e-06	1	true	GAMG	2.6729846240e-02	7.6646481500e-05	1	true	GAMG	7.8320548740e-02	2.3814645600e-04	6	true
43                	GAMG	2.8692200470e-03	9.5386359830e-06	1	5.3158086010e-03	1.6726319330e-05	1	false	GAMG	6.7746417710e-04	3.4831628480e-06	1	true	GAMG	2.6151980400e-02	7.3927183310e-05	1	true	GAMG	6.3647909440e-02	1.9596274970e-04	6	true
44                	GAMG	2.9376833480e-03	9.4992566400e-06	1	5.0785563480e-03	1.5486330420e-05	1	false	GAMG	6.5957629170e-04	3.3781377790e-06	1	true	GAMG	2.5586776040e-02	7.1306052130e-05	1	true	GAMG	5.1076815400e-02	1.1878806800e-04	5	true
45                	GAMG	2.8514801940e-03	9.2792465280e-06	1	4.8209964430e-03	1.4329684950e-05	1	false	GAMG	6.4093979670e-04	3.2718141570e-06	1	true	GAMG	2.5018318700e-02	6.8803882220e-05	1	true	GAMG	4.8390946670e-02	1.0375565570e-04	6	true
46                	GAMG	2.6524793670e-03	8.9340965060e-06	1	4.5600327860e-03	1.3351060680e-05	1	false	GAMG	6.2218442130e-04	3.1635320260e-06	1	true	GAMG	2.4467547940e-02	6.6460680640e-05	1	true	GAMG	5.1850060490e-02	2.2742666430e-04	6	true
47                	GAMG	2.4913257580e-03	8.5424588640e-06	1	4.3269088560e-03	1.2642667750e-05	1	false	GAMG	6.0365624670e-04	3.0550887080e-06	1	true	GAMG	2.3932987800e-02	6.4188651850e-05	1	true	GAMG	6.2233563890e-02	2.7074579210e-04	5	true
48                	GAMG	2.5612459960e-03	8.1796826480e-06	1	4.2112308610e-03	1.2335556430e-05	1	false	GAMG	5.8643150550e-04	2.9459061950e-06	1	true	GAMG	2.3418605800e-02	6.1994469620e-05	1	true	GAMG	6.5751630300e-02	2.6952980630e-04	5	true
49                	GAMG	2.6901964510e-03	7.8941461120e-06	1	4.2242805730e-03	1.2246930550e-05	1	false	GAMG	5.7052241240e-04	2.8361819900e-06	1	true	GAMG	2.2926687810e-02	5.9875751800e-05	1	true	GAMG	4.9414307770e-02	1.7351613940e-04	6	true
50                	GAMG	2.7915498570e-03	7.6876400460e-06	1	4.2526340830e-03	1.2218034980e-05	1	false	GAMG	5.5492658740e-04	2.7250203690e-06	1	true	GAMG	2.2457584010e-02	5.7873878010e-05	1	true	GAMG	4.1205120220e-02	6.3160830630e-05	6	true
51                	GAMG	2.8267869060e-03	7.5383078610e-06	1	4.2655747110e-03	1.2210155100e-05	1	false	GAMG	5.3917747230e-04	2.6131211120e-06	1	true	GAMG	2.2010439560e-02	5.5973650090e-05	1	true	GAMG	3.7445208750e-02	8.5094383570e-05	5	true
52                	GAMG	2.7941733090e-03	7.4194204640e-06	1	4.2342477440e-03	1.2149932300e-05	1	false	GAMG	5.2307085750e-04	2.5010912560e-06	1	true	GAMG	2.1581182410e-02	5.4156978210e-05	1	true	GAMG	3.6655969090e-02	6.5908505490e-05	6	true
53                	GAMG	2.7054202410e-03	7.3322485070e-06	1	4.1582858480e-03	1.2027342110e-05	1	false	GAMG	5.0704378070e-04	2.3902309400e-06	1	true	GAMG	2.1167754130e-02	5.2433954800e-05	1	true	GAMG	3.8194859730e-02	9.9845820160e-05	6	true
54                	GAMG	2.5920114840e-03	7.2739450480e-06	1	4.0557448520e-03	1.1801278830e-05	1	false	GAMG	4.9119506940e-04	2.2816545320e-06	1	true	GAMG	2.0768339410e-02	5.0795813890e-05	1	true	GAMG	4.1552453360e-02	1.7113889420e-04	6	true
55                	GAMG	2.4777472980e-03	7.2350847750e-06	1	3.9463150110e-03	1.1451976130e-05	1	false	GAMG	4.7548270700e-04	2.1765771640e-06	1	true	GAMG	2.0382149640e-02	4.9235226840e-05	1	true	GAMG	4.6513008730e-02	1.7873827350e-04	6	true
56                	GAMG	2.3821513550e-03	7.1987459210e-06	1	3.8363660830e-03	1.0973677070e-05	1	false	GAMG	4.6014450560e-04	2.0763776750e-06	1	true	GAMG	2.0005699390e-02	4.7722790830e-05	1	true	GAMG	5.2335553630e-02	9.2363770540e-05	6	true
57                	GAMG	2.3113718250e-03	7.1520453290e-06	1	3.7270424410e-03	1.0433788650e-05	1	false	GAMG	4.4538648830e-04	1.9806028780e-06	1	true	GAMG	1.9641967580e-02	4.6267975780e-05	1	true	GAMG	5.7513314770e-02	8.4732494370e-05	6	true
58                	GAMG	2.2635707600e-03	7.0900123040e-06	1	3.6288983320e-03	9.9640082520e-06	1	false	GAMG	4.3137846530e-04	1.8912834620e-06	1	true	GAMG	1.9291480770e-02	4.4874165480e-05	1	true	GAMG	5.5168757540e-02	1.4577691380e-04	5	true
59                	GAMG	2.2366015370e-03	7.0035624970e-06	1	3.5522144040e-03	9.6586678330e-06	1	false	GAMG	4.1813613020e-04	1.8085898670e-06	1	true	GAMG	1.8952009060e-02	4.3528112470e-05	1	true	GAMG	5.3684638050e-02	2.5108072880e-04	5	true
60                	GAMG	2.2240350270e-03	6.9038493630e-06	1	3.5064079080e-03	9.5066103520e-06	1	false	GAMG	4.0569640650e-04	1.7324440000e-06	1	true	GAMG	1.8623594290e-02	4.2241095490e-05	1	true	GAMG	5.4272113810e-02	8.0063629170e-05	6	true
61                	GAMG	2.2251246010e-03	6.7944371350e-06	1	3.4939106860e-03	9.4495779190e-06	1	false	GAMG	3.9382443170e-04	1.6629858360e-06	1	true	GAMG	1.8306110970e-02	4.1016422370e-05	1	true	GAMG	5.0915369180e-02	8.5244153630e-05	6	true
62                	GAMG	2.2312998380e-03	6.6860209820e-06	1	3.4950712620e-03	9.4405203880e-06	1	false	GAMG	3.8260580950e-04	1.5992322040e-06	1	true	GAMG	1.7999007310e-02	3.9838863780e-05	1	true	GAMG	4.6540155810e-02	2.3230095390e-04	5	true
63                	GAMG	2.2345810830e-03	6.5849053070e-06	1	3.4954626430e-03	9.4505693670e-06	1	false	GAMG	3.7231584530e-04	1.5405397990e-06	1	true	GAMG	1.7701385440e-02	3.8707658410e-05	1	true	GAMG	4.3025486150e-02	9.6709306310e-05	6	true
64                	GAMG	2.2293020170e-03	6.4941578410e-06	1	3.4801651950e-03	9.4619710580e-06	1	false	GAMG	3.6358036490e-04	1.4857807950e-06	1	true	GAMG	1.7410848380e-02	3.7623047070e-05	1	true	GAMG	4.0631906500e-02	8.8446482710e-05	5	true
65                	GAMG	2.2132640000e-03	6.4135278410e-06	1	3.4501231260e-03	9.4350639620e-06	1	false	GAMG	3.5541281380e-04	1.4349558810e-06	1	true	GAMG	1.7128836700e-02	3.6584448260e-05	1	true	GAMG	3.9363905320e-02	8.1652640160e-05	5	true
66                	GAMG	2.1888466500e-03	6.3422505070e-06	1	3.4041175260e-03	9.3398274350e-06	1	false	GAMG	3.4779487800e-04	1.3897461160e-06	1	true	GAMG	1.6855949400e-02	3.5588587280e-05	1	true	GAMG	3.8834894810e-02	4.7961002580e-05	6	true
67                	GAMG	2.1561897000e-03	6.2844160490e-06	1	3.3461950530e-03	9.1675527710e-06	1	false	GAMG	3.4043820850e-04	1.3500770450e-06	1	true	GAMG	1.6589601790e-02	3.4633912970e-05	1	true	GAMG	3.8990289600e-02	5.1179971650e-05	6	true
68                	GAMG	2.1197072650e-03	6.2353762400e-06	1	3.2824016360e-03	8.9289661890e-06	1	false	GAMG	3.3338594000e-04	1.3143066960e-06	1	true	GAMG	1.6331899480e-02	3.3722609680e-05	1	true	GAMG	3.9591028900e-02	5.2728411620e-05	6	true
69                	GAMG	2.0831927440e-03	6.1907446120e-06	1	3.2178056220e-03	8.6590288960e-06	1	false	GAMG	3.2663636650e-04	1.2820525280e-06	1	true	GAMG	1.6082709270e-02	3.2848537130e-05	1	true	GAMG	4.0370767000e-02	5.5296577540e-05	6	true
70                	GAMG	2.0499078260e-03	6.1470890590e-06	1	3.1563835330e-03	8.4012582660e-06	1	false	GAMG	3.2018960230e-04	1.2528485770e-06	1	true	GAMG	1.5841264230e-02	3.2010482060e-05	1	true	GAMG	4.0984409880e-02	6.0984854620e-05	6	true
71                	GAMG	2.0213826810e-03	6.1018287780e-06	1	3.1019955070e-03	8.1910129590e-06	1	false	GAMG	3.1405109320e-04	1.2259918680e-06	1	true	GAMG	1.5604425410e-02	3.1207621600e-05	1	true	GAMG	4.1194818860e-02	1.4891891570e-04	5	true
72                	GAMG	1.9988222070e-03	6.0523041930e-06	1	3.0579794170e-03	8.0466126820e-06	1	false	GAMG	3.0821659140e-04	1.2011563470e-06	1	true	GAMG	1.5373183140e-02	3.0437614530e-05	1	true	GAMG	3.9298087090e-02	1.1090609310e-04	5	true
73                	GAMG	1.9803213850e-03	6.0020818890e-06	1	3.0235459540e-03	7.9584839660e-06	1	false	GAMG	3.0265807510e-04	1.1780492980e-06	1	true	GAMG	1.5146185790e-02	2.9692297920e-05	1	true	GAMG	3.7915761150e-02	1.2910790600e-04	5	true
74                	GAMG	1.9642549690e-03	5.9502822080e-06	1	2.9955455880e-03	7.9136314950e-06	1	false	GAMG	2.9746114170e-04	1.1560134300e-06	1	true	GAMG	1.4924338690e-02	2.8974314060e-05	1	true	GAMG	3.6762857460e-02	1.3415312170e-04	5	true
75                	GAMG	1.9497523060e-03	5.8967436990e-06	1	2.9689735410e-03	7.8946925190e-06	1	false	GAMG	2.9252399550e-04	1.1346625860e-06	1	true	GAMG	1.4708263110e-02	2.8283903860e-05	1	true	GAMG	3.5669324370e-02	1.1256603290e-04	5	true
76                	GAMG	1.9357773070e-03	5.8427647760e-06	1	2.9405736110e-03	7.8749986860e-06	1	false	GAMG	2.8778663780e-04	1.1142890470e-06	1	true	GAMG	1.4497210880e-02	2.7622078440e-05	1	true	GAMG	3.4582971810e-02	7.6991656480e-05	5	true
77                	GAMG	1.9213657290e-03	5.7887228540e-06	1	2.9084497610e-03	7.8229878040e-06	1	false	GAMG	2.8319896280e-04	1.0949955230e-06	1	true	GAMG	1.4288839650e-02	2.6980355760e-05	1	true	GAMG	3.3445954770e-02	6.7733147840e-05	5	true
78                	GAMG	1.9058923290e-03	5.7364812320e-06	1	2.8726229270e-03	7.7295448620e-06	1	false	GAMG	2.7868506630e-04	1.0762492660e-06	1	true	GAMG	1.4083842880e-02	2.6356466340e-05	1	true	GAMG	3.2214663250e-02	6.5113706460e-05	5	true
79                	GAMG	1.8891945630e-03	5.6862751670e-06	1	2.8342515190e-03	7.6020128900e-06	1	false	GAMG	2.7432821160e-04	1.0580505350e-06	1	true	GAMG	1.3883356100e-02	2.5751252710e-05	1	true	GAMG	3.0899449350e-02	7.1719627470e-05	5	true
80                	GAMG	1.8709228130e-03	5.6391122980e-06	1	2.7911629080e-03	7.4449377080e-06	1	false	GAMG	2.7019888270e-04	1.0406326980e-06	1	true	GAMG	1.3689549050e-02	2.5169420450e-05	1	true	GAMG	2.9457075430e-02	1.2383736710e-04	5	true
81                	GAMG	1.8516085600e-03	5.5939091350e-06	1	2.7444733470e-03	7.2686320430e-06	1	false	GAMG	2.6622954860e-04	1.0241098270e-06	1	true	GAMG	1.3499810460e-02	2.4606932040e-05	1	true	GAMG	2.7970426560e-02	4.6204701870e-05	6	true
82                	GAMG	1.8315183490e-03	5.5508149440e-06	1	2.6965676650e-03	7.0927379780e-06	1	false	GAMG	2.6240737340e-04	1.0082723310e-06	1	true	GAMG	1.3311009190e-02	2.4060702180e-05	1	true	GAMG	2.6454961480e-02	4.5569129370e-05	6	true
83                	GAMG	1.8115236240e-03	5.5091744290e-06	1	2.6494647180e-03	6.9378800070e-06	1	false	GAMG	2.5874542850e-04	9.9307043670e-07	1	true	GAMG	1.3124869620e-02	2.3532884770e-05	1	true	GAMG	2.5021828870e-02	4.4499380100e-05	6	true
84                	GAMG	1.7922825480e-03	5.4677243480e-06	1	2.6040104380e-03	6.8080984220e-06	1	false	GAMG	2.5524435090e-04	9.7853118640e-07	1	true	GAMG	1.2942326240e-02	2.3025209570e-05	1	true	GAMG	2.3712338370e-02	1.1324838500e-04	5	true
85                	GAMG	1.7741997460e-03	5.4266222430e-06	1	2.5608293950e-03	6.6998465290e-06	1	false	GAMG	2.5181034380e-04	9.6436709420e-07	1	true	GAMG	1.2760981860e-02	2.2536568170e-05	1	true	GAMG	2.2548736460e-02	8.4397577110e-05	5	true
86                	GAMG	1.7570871820e-03	5.3848216660e-06	1	2.5197972940e-03	6.6227702060e-06	1	false	GAMG	2.4841788100e-04	9.5044731220e-07	1	true	GAMG	1.2579916940e-02	2.2059972200e-05	1	true	GAMG	2.1604437250e-02	7.0806081500e-05	5	true
87                	GAMG	1.7407784180e-03	5.3417599820e-06	1	2.4798750460e-03	6.5684340000e-06	1	false	GAMG	2.4513251890e-04	9.3687166180e-07	1	true	GAMG	1.2401203820e-02	2.1601694750e-05	1	true	GAMG	2.0794640780e-02	6.6161302700e-05	5	true
88                	GAMG	1.7251156790e-03	5.2973611990e-06	1	2.4405590790e-03	6.5095068000e-06	1	false	GAMG	2.4195452810e-04	9.2351275560e-07	1	true	GAMG	1.2222623270e-02	2.1157058490e-05	1	true	GAMG	2.0044887540e-02	6.4526603220e-05	5	true
89                	GAMG	1.7099159870e-03	5.2526406510e-06	1	2.4009653530e-03	6.4402548770e-06	1	false	GAMG	2.3889918460e-04	9.1013379590e-07	1	true	GAMG	1.2042969550e-02	2.0720297270e-05	1	true	GAMG	1.9459909330e-02	6.3300876000e-05	5	true
90                	GAMG	1.6949125350e-03	5.2080092830e-06	1	2.3622878770e-03	6.3533626490e-06	1	false	GAMG	2.3588153730e-04	8.9680514310e-07	1	true	GAMG	1.1862278030e-02	2.0295353990e-05	1	true	GAMG	1.8891941090e-02	6.2574483680e-05	5	true
91                	GAMG	1.6798905080e-03	5.1642762740e-06	1	2.3239941040e-03	6.2491569970e-06	1	false	GAMG	2.3290447590e-04	8.8355973780e-07	1	true	GAMG	1.1681847960e-02	1.9882240120e-05	1	true	GAMG	1.8323229780e-02	6.3992891270e-05	5	true
92                	GAMG	1.6647542030e-03	5.1214227440e-06	1	2.2838960250e-03	6.1312146030e-06	1	false	GAMG	2.2997929130e-04	8.7055761450e-07	1	true	GAMG	1.1501571220e-02	1.9481586160e-05	1	true	GAMG	1.7779322640e-02	6.9262445430e-05	5	true
93                	GAMG	1.6495065450e-03	5.0794245370e-06	1	2.2419788430e-03	6.0017936330e-06	1	false	GAMG	2.2707376310e-04	8.5774790570e-07	1	true	GAMG	1.1324234580e-02	1.9095819140e-05	1	true	GAMG	1.7224257380e-02	7.8505384150e-05	5	true
94                	GAMG	1.6341908940e-03	5.0380413390e-06	1	2.1990203030e-03	5.8676856120e-06	1	false	GAMG	2.2420652310e-04	8.4492874120e-07	1	true	GAMG	1.1150089870e-02	1.8725561160e-05	1	true	GAMG	1.6663268890e-02	3.1678620380e-05	6	true
95                	GAMG	1.6187976550e-03	4.9974534870e-06	1	2.1557299210e-03	5.7391475180e-06	1	false	GAMG	2.2136608010e-04	8.3216075990e-07	1	true	GAMG	1.0979239690e-02	1.8367307040e-05	1	true	GAMG	1.6090455580e-02	3.0642749200e-05	6	true
96                	GAMG	1.6034782680e-03	4.9572760900e-06	1	2.1128171620e-03	5.6186412930e-06	1	false	GAMG	2.1852015130e-04	8.1951068070e-07	1	true	GAMG	1.0811421740e-02	1.8020821000e-05	1	true	GAMG	1.5554150390e-02	3.0042123330e-05	6	true
97                	GAMG	1.5882994670e-03	4.9177998850e-06	1	2.0706940380e-03	5.5123855490e-06	1	false	GAMG	2.1567905080e-04	8.0699780710e-07	1	true	GAMG	1.0646440230e-02	1.7686025900e-05	1	true	GAMG	1.5044193830e-02	2.9764947710e-05	6	true
98                	GAMG	1.5733117510e-03	4.8786897310e-06	1	2.0298910810e-03	5.4307366910e-06	1	false	GAMG	2.1287299980e-04	7.9472671200e-07	1	true	GAMG	1.0484145390e-02	1.7361132730e-05	1	true	GAMG	1.4590899710e-02	6.9599998820e-05	5	true
99                	GAMG	1.5585806930e-03	4.8388721070e-06	1	1.9906831790e-03	5.3567064990e-06	1	false	GAMG	2.1007831280e-04	7.8263022470e-07	1	true	GAMG	1.0324564200e-02	1.7046271810e-05	1	true	GAMG	1.4168644180e-02	6.5613697490e-05	5	true
100               	GAMG	1.5440623920e-03	4.7988012530e-06	1	1.9530584560e-03	5.2815073200e-06	1	false	GAMG	2.0731189850e-04	7.7090224830e-07	1	true	GAMG	1.0167569470e-02	1.6742169260e-05	1	true	GAMG	1.3762669300e-02	6.3638453750e-05	5	true
101               	GAMG	1.5297020810e-03	4.7585525710e-06	1	1.9169540850e-03	5.2026738460e-06	1	false	GAMG	2.0457122460e-04	7.5970834310e-07	1	true	GAMG	1.0013060670e-02	1.6446730340e-05	1	true	GAMG	1.3371867510e-02	6.3162858120e-05	5	true
102               	GAMG	1.5154683080e-03	4.7186116690e-06	1	1.8824272840e-03	5.1182488360e-06	1	false	GAMG	2.0186111340e-04	7.4904174780e-07	1	true	GAMG	9.8609778750e-03	1.6162355330e-05	1	true	GAMG	1.2997237530e-02	6.3489802450e-05	5	true
103               	GAMG	1.5013356690e-03	4.6792176290e-06	1	1.8497523480e-03	5.0259962260e-06	1	false	GAMG	1.9919584170e-04	7.3866903630e-07	1	true	GAMG	9.7114649430e-03	1.5888398410e-05	1	true	GAMG	1.2641860850e-02	2.2644816560e-05	6	true
104               	GAMG	1.4872600800e-03	4.6404441140e-06	1	1.8183091850e-03	4.9303287250e-06	1	false	GAMG	1.9657601220e-04	7.2855036490e-07	1	true	GAMG	9.5647054270e-03	1.5624339610e-05	1	true	GAMG	1.2279597770e-02	2.2032886780e-05	6	true
105               	GAMG	1.4732945130e-03	4.6016379580e-06	1	1.7874113870e-03	4.8343409330e-06	1	false	GAMG	1.9399114400e-04	7.1863786760e-07	1	true	GAMG	9.4206705890e-03	1.5367955130e-05	1	true	GAMG	1.1918468670e-02	2.1596642440e-05	6	true
106               	GAMG	1.4594179390e-03	4.5627676550e-06	1	1.7570397320e-03	4.7402018960e-06	1	false	GAMG	1.9145437920e-04	7.0889656250e-07	1	true	GAMG	9.2794141730e-03	1.5119709230e-05	1	true	GAMG	1.1566993310e-02	2.1239901200e-05	6	true
107               	GAMG	1.4456255780e-03	4.5242359860e-06	1	1.7271580280e-03	4.6494662940e-06	1	false	GAMG	1.8896739000e-04	6.9935913870e-07	1	true	GAMG	9.1409563060e-03	1.4880184190e-05	1	true	GAMG	1.1228922500e-02	2.0886901230e-05	6	true
108               	GAMG	1.4319140840e-03	4.4858798010e-06	1	1.6981253580e-03	4.5640177760e-06	1	false	GAMG	1.8652552620e-04	6.9005412640e-07	1	true	GAMG	9.0052580910e-03	1.4648444130e-05	1	true	GAMG	1.0905491270e-02	2.0493805400e-05	6	true
109               	GAMG	1.4182865340e-03	4.4477528360e-06	1	1.6699244200e-03	4.4867558760e-06	1	false	GAMG	1.8413645140e-04	6.8093329710e-07	1	true	GAMG	8.8722230410e-03	1.4425022740e-05	1	true	GAMG	1.0593087030e-02	2.0042515730e-05	6	true
110               	GAMG	1.4047470590e-03	4.4100879800e-06	1	1.6427865460e-03	4.4180872260e-06	1	false	GAMG	1.8180589170e-04	6.7201833950e-07	1	true	GAMG	8.7417367780e-03	1.4208262260e-05	1	true	GAMG	1.0293220320e-02	1.9532068980e-05	6	true
111               	GAMG	1.3913064280e-03	4.3723438340e-06	1	1.6166772680e-03	4.3527002520e-06	1	false	GAMG	1.7951263410e-04	6.6328211250e-07	1	true	GAMG	8.6136599090e-03	1.3997415600e-05	1	true	GAMG	1.0004144520e-02	1.8988195240e-05	6	true
112               	GAMG	1.3779711450e-03	4.3344250410e-06	1	1.5916959840e-03	4.2889132470e-06	1	false	GAMG	1.7725566150e-04	6.5470820580e-07	1	true	GAMG	8.4880387930e-03	1.3794091280e-05	1	true	GAMG	9.7294777640e-03	1.8411846850e-05	6	true
113               	GAMG	1.3647628760e-03	4.2964189760e-06	1	1.5678346020e-03	4.2239770730e-06	1	false	GAMG	1.7503047970e-04	6.4630219590e-07	1	true	GAMG	8.3647308230e-03	1.3597499000e-05	1	true	GAMG	9.4616309440e-03	1.7876874700e-05	6	true
114               	GAMG	1.3516596830e-03	4.2585426870e-06	1	1.5450319610e-03	4.1579705500e-06	1	false	GAMG	1.7284180610e-04	6.3802325830e-07	1	true	GAMG	8.2436308300e-03	1.3407055570e-05	1	true	GAMG	9.1991480850e-03	1.7434349120e-05	6	true
115               	GAMG	1.3386644740e-03	4.2208581440e-06	1	1.5232671210e-03	4.0909970190e-06	1	false	GAMG	1.7069017100e-04	6.2985606650e-07	1	true	GAMG	8.1246192010e-03	1.3222381950e-05	1	true	GAMG	8.9438141060e-03	1.7019510570e-05	6	true
116               	GAMG	1.3257844130e-03	4.1832990930e-06	1	1.5023575270e-03	4.0222162660e-06	1	false	GAMG	1.6857287460e-04	6.2180832470e-07	1	true	GAMG	8.0076991260e-03	1.3042879790e-05	1	true	GAMG	8.6879599840e-03	1.6658140300e-05	6	true
117               	GAMG	1.3130209560e-03	4.1462158920e-06	1	1.4818153480e-03	3.9534464340e-06	1	false	GAMG	1.6650039540e-04	6.1388429010e-07	1	true	GAMG	7.8928077130e-03	1.2868899190e-05	1	true	GAMG	8.4349107210e-03	1.6345367310e-05	6	true
118               	GAMG	1.3003620020e-03	4.1091173160e-06	1	1.4614463030e-03	3.8857760510e-06	1	false	GAMG	1.6447234550e-04	6.0607217850e-07	1	true	GAMG	7.7798985030e-03	1.2699536680e-05	1	true	GAMG	8.1905138300e-03	1.6062571120e-05	6	true
119               	GAMG	1.2878215590e-03	4.0721562880e-06	1	1.4411187810e-03	3.8210577160e-06	1	false	GAMG	1.6247725480e-04	5.9836238190e-07	1	true	GAMG	7.6688527690e-03	1.2534917130e-05	1	true	GAMG	7.9546829620e-03	1.5794493310e-05	6	true
120               	GAMG	1.2753894490e-03	4.0355519310e-06	1	1.4209310180e-03	3.7595772580e-06	1	false	GAMG	1.6050753780e-04	5.9076700380e-07	1	true	GAMG	7.5594540150e-03	1.2374444020e-05	1	true	GAMG	7.7283311430e-03	1.5527151230e-05	6	true
121               	GAMG	1.2630628300e-03	3.9992139590e-06	1	1.4008621170e-03	3.7013229440e-06	1	false	GAMG	1.5856173630e-04	5.8325750930e-07	1	true	GAMG	7.4516781350e-03	1.2216665660e-05	1	true	GAMG	7.5122931990e-03	1.5244638350e-05	6	true
122               	GAMG	1.2508310740e-03	3.9629103420e-06	1	1.3810181390e-03	3.6454058700e-06	1	false	GAMG	1.5663649130e-04	5.7583613490e-07	1	true	GAMG	7.3454408160e-03	1.2061408270e-05	1	true	GAMG	7.3021631650e-03	1.4951242830e-05	6	true
123               	GAMG	1.2386962250e-03	3.9266536340e-06	1	1.3614396800e-03	3.5907935760e-06	1	false	GAMG	1.5473209200e-04	5.6849935150e-07	1	true	GAMG	7.2406402650e-03	1.1907968840e-05	1	true	GAMG	7.0974207540e-03	1.4638569510e-05	6	true